version 2
run General-40-20200901-18:00:20-5060
attr configname General
attr datetime 20200901-18:00:20
attr experiment General
attr inifile FairNetworkConf.ini
attr iterationvars "$nUser=30, $0=1.5"
attr iterationvarsf nUser=30,1.5-
attr measurement "$nUser=30, $0=1.5"
attr network FairNetwork
attr processid 5060
attr repetition 0
attr replication #0
attr resultdir results
attr runnumber 40
attr seedset 0
itervar nUser 30
param **.NUM_USER 30
param **.packetGenerator.senders[*].lambda 1.5
param **.antenna.timeSlot 1s

vector 0 FairNetwork.user[0] packetDelayStat:vector ETV
attr "" ""
attr source packetDelay
attr title "Packet delay stat, vector"
vector 1 FairNetwork.user[1] packetDelayStat:vector ETV
attr "" ""
attr source packetDelay
attr title "Packet delay stat, vector"
vector 2 FairNetwork.user[2] packetDelayStat:vector ETV
attr "" ""
attr source packetDelay
attr title "Packet delay stat, vector"
vector 3 FairNetwork.user[3] packetDelayStat:vector ETV
attr "" ""
attr source packetDelay
attr title "Packet delay stat, vector"
vector 4 FairNetwork.user[5] packetDelayStat:vector ETV
attr "" ""
attr source packetDelay
attr title "Packet delay stat, vector"
vector 5 FairNetwork.user[7] packetDelayStat:vector ETV
attr "" ""
attr source packetDelay
attr title "Packet delay stat, vector"
vector 6 FairNetwork.user[9] packetDelayStat:vector ETV
attr "" ""
attr source packetDelay
attr title "Packet delay stat, vector"
vector 7 FairNetwork.user[6] packetDelayStat:vector ETV
attr "" ""
attr source packetDelay
attr title "Packet delay stat, vector"
vector 8 FairNetwork.user[8] packetDelayStat:vector ETV
attr "" ""
attr source packetDelay
attr title "Packet delay stat, vector"
vector 9 FairNetwork.user[10] packetDelayStat:vector ETV
attr "" ""
attr source packetDelay
attr title "Packet delay stat, vector"
vector 10 FairNetwork.user[11] packetDelayStat:vector ETV
attr "" ""
attr source packetDelay
attr title "Packet delay stat, vector"
vector 11 FairNetwork.user[12] packetDelayStat:vector ETV
attr "" ""
attr source packetDelay
attr title "Packet delay stat, vector"
vector 12 FairNetwork.user[14] packetDelayStat:vector ETV
attr "" ""
attr source packetDelay
attr title "Packet delay stat, vector"
vector 13 FairNetwork.user[16] packetDelayStat:vector ETV
attr "" ""
attr source packetDelay
attr title "Packet delay stat, vector"
vector 14 FairNetwork.user[4] packetDelayStat:vector ETV
attr "" ""
attr source packetDelay
attr title "Packet delay stat, vector"
vector 15 FairNetwork.user[17] packetDelayStat:vector ETV
attr "" ""
attr source packetDelay
attr title "Packet delay stat, vector"
vector 16 FairNetwork.user[18] packetDelayStat:vector ETV
attr "" ""
attr source packetDelay
attr title "Packet delay stat, vector"
vector 17 FairNetwork.user[19] packetDelayStat:vector ETV
attr "" ""
attr source packetDelay
attr title "Packet delay stat, vector"
vector 18 FairNetwork.user[21] packetDelayStat:vector ETV
attr "" ""
attr source packetDelay
attr title "Packet delay stat, vector"
vector 19 FairNetwork.user[23] packetDelayStat:vector ETV
attr "" ""
attr source packetDelay
attr title "Packet delay stat, vector"
vector 20 FairNetwork.user[24] packetDelayStat:vector ETV
attr "" ""
attr source packetDelay
attr title "Packet delay stat, vector"
vector 21 FairNetwork.user[25] packetDelayStat:vector ETV
attr "" ""
attr source packetDelay
attr title "Packet delay stat, vector"
vector 22 FairNetwork.user[26] packetDelayStat:vector ETV
attr "" ""
attr source packetDelay
attr title "Packet delay stat, vector"
vector 23 FairNetwork.user[27] packetDelayStat:vector ETV
attr "" ""
attr source packetDelay
attr title "Packet delay stat, vector"
vector 24 FairNetwork.user[22] packetDelayStat:vector ETV
attr "" ""
attr source packetDelay
attr title "Packet delay stat, vector"
vector 25 FairNetwork.user[28] packetDelayStat:vector ETV
attr "" ""
attr source packetDelay
attr title "Packet delay stat, vector"
vector 26 FairNetwork.user[29] packetDelayStat:vector ETV
attr "" ""
attr source packetDelay
attr title "Packet delay stat, vector"
vector 27 FairNetwork.user[13] packetDelayStat:vector ETV
attr "" ""
attr source packetDelay
attr title "Packet delay stat, vector"
vector 28 FairNetwork.user[15] packetDelayStat:vector ETV
attr "" ""
attr source packetDelay
attr title "Packet delay stat, vector"
vector 29 FairNetwork.user[20] packetDelayStat:vector ETV
attr "" ""
attr source packetDelay
attr title "Packet delay stat, vector"
0	161	1	0.469416996956
0	2543	13	1.963700893187
0	2543	13	3.446050507878
0	2543	13	3.68148993397
0	2543	13	4.065169398559
0	2543	13	4.388588174373
0	2543	13	5.080694374816
0	2543	13	5.732031992412
0	2543	13	6.099397650192
0	2543	13	7.352040352994
0	2543	13	7.876841112982
0	2543	13	9.177871336905
0	2543	13	9.793353424552
0	2543	13	11.033089565935
0	2543	13	11.870376737967
0	6792	35	23.924777780458
0	7576	39	0.558682809451
0	7576	39	1.408834610933
0	7576	39	1.492750883892
0	7576	39	2.250043511699
0	7576	39	3.261067494359
0	7576	39	3.751043775152
0	7576	39	4.163663414903
0	7576	39	5.239664798165
0	7576	39	6.309824502873
0	7576	39	6.737630617992
0	7576	39	9.301111864087
0	7576	39	10.661706674695
0	7576	39	12.02191617999
0	7576	39	12.1227367491
0	7576	39	13.126592921525
0	7576	39	15.226706207309
0	7576	39	16.418364649601
0	7576	39	16.724530074438
0	7576	39	16.738147133371
0	7576	39	17.434555472243
0	7576	39	17.495329489659
0	7576	39	17.769714820487
0	7576	39	17.818838390797
0	7576	39	19.024417900314
0	7576	39	20.75658729088
0	7576	39	21.089168630224
0	7576	39	21.648790532157
0	7576	39	22.084712243638
0	7576	39	22.586494985847
0	7576	39	23.70130245273
0	7576	39	24.747233197812
0	7576	39	25.180197429979
0	7576	39	25.502598833278
0	7576	39	25.714836260506
0	14762	76	31.108269425938
0	14762	76	31.245738280625
0	14762	76	31.450591848727
0	14762	76	31.878388316748
0	14762	76	32.235432130233
0	14762	76	32.310062903988
0	14762	76	32.801947765159
0	14762	76	33.749524218555
0	14762	76	35.679137870546
0	14762	76	36.193027642858
0	14762	76	36.296180763191
0	14762	76	36.877728226552
0	16833	86	39.225906085688
0	16833	86	40.116099542104
0	17165	88	40.819851136899
0	17554	90	26.169957968332
0	17554	90	26.294908679011
0	17554	90	27.035306976136
0	17554	90	27.741196397128
0	17554	90	28.473804708829
0	17554	90	30.807280498465
0	17554	90	30.848690692109
0	17554	90	30.918398175959
0	17554	90	31.715803375597
0	17554	90	33.266704083393
0	17554	90	33.649725687887
0	17554	90	34.282722076885
0	17554	90	34.579734406919
0	17554	90	34.978231791465
0	17554	90	35.741657761265
0	17554	90	37.294266677408
0	17554	90	39.212876691593
0	17554	90	39.538581391132
0	17554	90	40.178280042711
0	17554	90	40.345907997428
0	17554	90	40.977239115545
0	17554	90	41.085330108509
0	17554	90	41.726250734553
0	17554	90	41.987431275004
0	17554	90	42.000076987805
0	17554	90	42.096929006
0	17554	90	42.657152143075
0	23108	118	51.258677798661
0	23108	118	51.520752836864
0	23108	118	51.822154210347
0	23108	118	52.446195250195
0	23108	118	52.698836559717
0	23108	118	53.624865019578
0	23108	118	53.716884145197
0	23108	118	54.012486830944
0	25291	129	40.240147633898
0	25291	129	40.96432722115
0	25291	129	41.271003192977
0	25291	129	43.262463120878
0	25291	129	43.40838351855
0	25291	129	44.412807074065
0	25291	129	44.5119485869
0	25291	129	44.766319149149
0	25291	129	45.478367280582
0	25291	129	46.227146148271
0	25291	129	46.305116421466
0	25291	129	46.580117241414
0	25291	129	46.695535545511
0	25291	129	47.346778261558
0	25291	129	47.533629600544
0	25291	129	47.962816934946
0	25291	129	48.381444655607
0	25291	129	48.738154440329
0	25291	129	48.93287479584
0	25291	129	49.51415203159
0	25291	129	50.219980508319
0	25291	129	53.793380741814
0	25291	129	53.910656438764
0	25291	129	54.582669269044
0	25291	129	54.738870281561
0	25291	129	55.444087890462
0	25291	129	55.515844629233
0	25291	129	57.644475723935
0	25291	129	60.614140288052
0	25291	129	61.284720958163
0	25291	129	61.669603832034
0	25291	129	61.695725936309
0	31916	163	64.053579470633
0	31916	163	65.457127004494
0	31916	163	67.956481310884
0	31916	163	70.338873559114
0	31916	163	70.406230075987
0	31916	163	71.15277298649
0	31916	163	72.365985599346
0	31916	163	73.01605355545
0	31916	163	73.084150143133
0	31916	163	73.093259862087
0	32091	164	64.156966010813
0	32091	164	64.632021739702
0	32896	168	58.535292137177
0	32896	168	59.313207821543
0	32896	168	59.397466912493
0	32896	168	59.834564435402
0	32896	168	60.068681828323
0	32896	168	60.36562813627
0	32896	168	60.450999313144
0	32896	168	63.045379395041
0	32896	168	63.26698622235
0	32896	168	63.655571814928
0	32896	168	63.682222680967
0	32896	168	63.695682766398
0	32896	168	64.591846281166
0	32896	168	64.99181087226
0	32896	168	65.610796536861
0	32896	168	65.64901448781
0	36143	184	67.191150075859
0	36143	184	67.396759969258
0	36143	184	68.732253650929
0	36143	184	69.289652005576
0	36143	184	69.844881016287
0	36143	184	70.631007367664
0	36143	184	70.793937666385
0	36143	184	70.83813593404
0	36143	184	72.507410456097
0	36143	184	72.864000039935
0	36143	184	74.280158171269
0	37756	192	32.05623716416
0	37756	192	32.636594381711
0	37756	192	32.828201365758
0	37756	192	34.247867629803
0	37756	192	34.998055641032
0	37756	192	35.334734806202
0	37756	192	35.688549803946
0	37756	192	36.809164606977
0	37756	192	37.780376979353
0	37756	192	38.015723734869
0	37756	192	38.09807483311
0	37756	192	38.899567211274
0	37756	192	41.461571600103
0	37756	192	42.710544853341
0	37756	192	43.108131116227
0	37756	192	43.503213801195
0	37756	192	44.26295244355
0	37756	192	46.297806881473
0	37756	192	47.778811480456
0	37756	192	47.947091475717
0	37756	192	48.62619729573
0	37756	192	49.19234450344
0	37756	192	50.701500220681
0	37756	192	51.299227467872
0	37756	192	51.635456672264
0	37756	192	52.207718650817
0	37756	192	53.148401590347
0	37756	192	53.339082238686
0	37756	192	53.717685007673
0	37756	192	55.901113792816
0	37756	192	56.128011618306
0	37756	192	57.013850200806
0	37756	192	57.824855969764
0	37756	192	58.034670410334
0	37756	192	58.5967257651
0	37756	192	59.351815193082
0	37756	192	59.457376197236
0	37756	192	59.460513890898
0	37756	192	59.768334488261
0	37756	192	60.945495203203
0	37756	192	61.065663371193
0	37756	192	61.07920501039
0	37756	192	61.615736610258
0	37756	192	62.204489304898
0	37756	192	62.542622720402
0	37756	192	62.67752301278
0	37756	192	62.882534828622
0	37756	192	63.110304273306
0	37756	192	64.337825920964
0	37756	192	65.17778179437
0	37756	192	65.87230223049
0	37756	192	65.966522706197
0	37756	192	67.198074473532
0	37756	192	67.931971746926
0	37756	192	67.938238914035
0	37756	192	68.193945723434
0	37756	192	68.410839333787
0	37756	192	70.177009952905
0	37756	192	70.234856941131
0	37756	192	70.806787368514
0	37756	192	72.500323707153
0	37756	192	72.566090579432
0	37756	192	74.223145484083
0	37756	192	74.716984784381
0	49481	253	79.190890004092
0	49481	253	79.430174814672
0	49481	253	79.853593291759
0	49481	253	79.866513145991
0	49481	253	80.295916284873
0	49481	253	80.917518205144
0	49481	253	81.560487248807
0	49481	253	81.928084575563
0	49481	253	82.26295844107
0	49481	253	82.9514897815
0	49481	253	83.126194609284
0	49481	253	85.209840181056
0	49481	253	85.717752028587
0	49481	253	86.181618335854
0	49481	253	86.900174925278
0	49481	253	87.761447771145
0	49481	253	88.353355378103
0	49481	253	89.139610667199
0	49481	253	91.382524302566
0	49481	253	92.805744602555
0	53802	275	91.759700170292
0	53802	275	92.465706427213
0	53802	275	92.488508706118
0	53802	275	93.057895196547
0	53802	275	93.592929853719
0	53802	275	94.188749239256
0	53802	275	94.480101248439
0	53802	275	95.0426935635
0	53802	275	95.107308733218
0	53802	275	95.343458154715
0	53802	275	95.415822887045
0	53802	275	95.51287220601
0	53802	275	96.917837275977
0	53802	275	97.291144656026
0	53802	275	98.213130793717
0	53802	275	98.854714164231
0	53802	275	99.177137955291
0	53802	275	99.40553770509
0	53802	275	99.631980860145
0	53802	275	100.35152765925
0	60462	308	122.44467651744
0	60658	309	76.139954046184
0	60658	309	76.416362407957
0	60658	309	76.541892391436
0	60658	309	77.466086626117
0	60658	309	78.338952202132
0	60658	309	80.262026703534
0	60658	309	80.55952858388
0	60658	309	81.524724638539
0	60658	309	81.532580126485
0	60658	309	81.707466332596
0	60658	309	82.998517824257
0	60658	309	83.009696334918
0	60658	309	85.483003396187
0	60658	309	85.786277959381
0	60658	309	87.128126450185
0	60658	309	87.162734818307
0	60658	309	88.016290954182
0	60658	309	88.379529039612
0	60658	309	88.78239508751
0	60658	309	89.093910131783
0	60658	309	89.890869175971
0	60658	309	92.590767068507
0	60658	309	92.638550658049
0	60658	309	92.66107518175
0	60658	309	93.009655201809
0	60658	309	93.110182541938
0	60658	309	93.671436516426
0	60658	309	94.024771768517
0	60658	309	95.122584502735
0	60658	309	96.457242166419
0	60658	309	97.713194757476
0	60658	309	98.719743727882
0	60658	309	98.807866200958
0	60658	309	98.929558602213
0	60658	309	99.566869551495
0	60658	309	100.04014816964
0	60658	309	100.15836521974
0	60658	309	100.18388716166
0	60658	309	101.53449303973
0	60658	309	103.10127789957
0	60658	309	103.20919129071
0	60658	309	104.43567981409
0	60658	309	108.94594016072
0	60658	309	109.36824857253
0	60658	309	110.20332025581
0	60658	309	110.49288402644
0	60658	309	112.17240544649
0	60658	309	112.24232667023
0	60658	309	112.31273509931
0	60658	309	112.7087840982
0	60658	309	113.52013042842
0	60658	309	114.03351500145
0	60658	309	115.12744672007
0	60658	309	115.32849066222
0	60658	309	116.81176710037
0	60658	309	119.57030694071
0	60658	309	119.95194797499
0	60658	309	120.02016171823
0	60658	309	120.32561030754
0	60658	309	120.42713939104
0	60658	309	121.93956205283
0	60658	309	122.10628304949
0	60658	309	122.48269005023
0	60658	309	122.74077677833
0	71538	365	93.872323639733
0	71538	365	94.318399455526
0	71538	365	94.69833116573
0	71538	365	94.737046073807
0	71538	365	94.776900049084
0	71538	365	94.836336242414
0	71538	365	95.032008010363
0	71538	365	95.792766612269
0	71538	365	95.964775121562
0	71538	365	98.307760908586
0	71538	365	98.757257288343
0	71538	365	99.158376612693
0	71538	365	100.05527490152
0	71538	365	100.61726075179
0	71538	365	102.54331114639
0	71538	365	102.70788399226
0	71538	365	102.84523869125
0	71538	365	103.01297109999
0	71538	365	103.16998748227
0	71538	365	103.32915606417
0	71538	365	103.66773281262
0	71538	365	104.20638618156
0	71538	365	104.45564384549
0	71538	365	106.68093340139
0	71538	365	107.55412364897
0	71538	365	108.48057502482
0	71538	365	109.07482740943
0	71538	365	110.40627538775
0	71538	365	110.91766182413
0	71538	365	111.67539282097
0	71538	365	112.30994595933
0	71538	365	112.51725782931
0	71538	365	114.33148999992
0	71538	365	117.58424525858
0	71538	365	117.76535730548
0	71538	365	118.56600457651
0	71538	365	119.13995366763
0	71538	365	119.17440893816
0	71538	365	119.82206371022
0	71538	365	120.28419688991
0	71538	365	120.40416845095
0	71538	365	121.42472260179
0	71538	365	121.44629380489
0	71538	365	122.05160315644
0	71538	365	122.86413435867
0	71538	365	123.48889350382
0	71538	365	125.24370607885
0	71538	365	127.16673560446
0	71538	365	127.44917367203
0	71538	365	128.83319437899
0	71538	365	129.00219818242
0	71538	365	129.4172630784
0	71538	365	130.46953822648
0	71538	365	130.59455086061
0	71538	365	130.60701450756
0	71538	365	130.73890084586
0	71538	365	130.88766031793
0	71538	365	131.16364626638
0	71538	365	131.2008929683
0	71538	365	131.64919997953
0	85375	435	152.18271323114
0	85375	435	152.6954597652
0	85375	435	153.44903012914
0	85375	435	153.8520842747
0	85375	435	154.28623809598
0	85375	435	155.04459709967
0	85375	435	155.95255158254
0	85375	435	155.99896336326
0	85375	435	157.28453678784
0	85375	435	157.30119569005
0	85375	435	157.8225128373
0	85375	435	157.95449132753
0	85375	435	158.59545104191
0	85375	435	158.9117285688
0	85375	435	161.40952497801
0	85375	435	162.20409704712
0	85375	435	163.62321044347
0	88107	449	129.41937898086
0	88107	449	129.84483805126
0	88107	449	130.33165649475
0	88107	449	132.43638685569
0	88107	449	132.59633586865
0	88107	449	132.84728876967
0	88107	449	133.04258974199
0	88107	449	134.45775417795
0	88107	449	135.3327595066
0	88107	449	135.50651959285
0	88107	449	137.46950644446
0	88107	449	138.505948403
0	88107	449	138.66776073212
0	88107	449	139.10809611862
0	88107	449	139.88350497423
0	88107	449	140.28953471604
0	88107	449	142.32499116243
0	88107	449	143.08436292955
0	88107	449	143.22126144204
0	88107	449	144.66510389595
0	88107	449	145.73158352385
0	88107	449	146.10103074321
0	88107	449	146.31408051313
0	88107	449	146.56325604234
0	88107	449	147.93713686959
0	88107	449	147.93717377086
0	88107	449	148.59817663279
0	88107	449	149.0870884149
0	88107	449	150.27251730612
0	88107	449	150.53423265825
0	88107	449	151.12590061057
0	88107	449	151.81780066089
0	88107	449	152.14022625256
0	88107	449	153.70545542684
0	88107	449	153.9625805562
0	88107	449	155.38495608119
0	88107	449	156.33187838491
0	88107	449	156.50544599261
0	88107	449	156.51935747168
0	88107	449	156.61775482694
0	88107	449	156.82149142815
0	88107	449	158.40077020871
0	88107	449	159.12603983112
0	88107	449	159.53192844028
0	88107	449	159.69492245497
0	88107	449	160.1175424679
0	88107	449	163.21064415215
0	88107	449	164.04677966554
0	88107	449	165.56000634273
0	98481	503	183.40204715073
0	99256	507	162.1739302699
0	99256	507	163.0510144421
0	99256	507	163.58660895054
0	99256	507	164.50881992798
0	99256	507	164.56689231682
0	99256	507	164.73035771191
0	99256	507	166.29068568568
0	99256	507	166.35546413793
0	99256	507	167.27610620171
0	99256	507	168.19233487798
0	99256	507	169.15870472894
0	99256	507	169.17932225664
0	99256	507	171.05974622225
0	99256	507	171.91336245824
0	99256	507	172.20633271857
0	99256	507	172.29522646742
0	99256	507	172.74158686132
0	99256	507	172.86176972771
0	99256	507	172.96608690797
0	99256	507	173.1189164581
0	99256	507	173.25388896724
0	99256	507	174.47739790253
0	99256	507	175.03298339629
0	99256	507	175.44767467568
0	99256	507	175.78386129785
0	99256	507	176.59652752797
0	99256	507	177.43773597696
0	99256	507	177.56591027086
0	99256	507	177.66033829405
0	99256	507	177.87647103638
0	99256	507	178.3621535982
0	99256	507	179.11112726456
0	99256	507	179.19448232451
0	99256	507	180.11093562705
0	99256	507	181.44029509457
0	99256	507	182.53901254334
0	99256	507	183.1282029807
0	99256	507	183.26577497643
0	99256	507	183.48258565508
0	99256	507	183.64386541826
0	99256	507	184.05908495811
0	99256	507	184.75188871583
0	99256	507	185.06433969981
0	99256	507	185.93832127859
0	99256	507	186.30688019236
0	99256	507	186.41812995318
0	99256	507	186.5731466321
0	108399	554	208.58845355075
0	108749	556	158.19351103019
0	108749	556	158.65214001583
0	108749	556	159.58592381381
0	108749	556	160.01978870871
0	108749	556	162.82102832621
0	108749	556	165.49299476279
0	108749	556	166.50370738268
0	108749	556	166.610596779
0	108749	556	167.93242938207
0	108749	556	168.21678659009
0	108749	556	170.65655814394
0	108749	556	170.66544164049
0	108749	556	171.65493662892
0	108749	556	172.29627791332
0	108749	556	172.44034205771
0	108749	556	173.70040985644
0	108749	556	174.9413642851
0	108749	556	175.17253315429
0	108749	556	175.63215617952
0	108749	556	177.01466382159
0	108749	556	177.83658413028
0	108749	556	178.50022655919
0	108749	556	178.94412155028
0	108749	556	180.01442739232
0	108749	556	180.85258538937
0	108749	556	182.74367885162
0	108749	556	183.19554685299
0	108749	556	185.18368063664
0	108749	556	186.59093981956
0	108749	556	186.76665789478
0	108749	556	187.17151075386
0	108749	556	189.34412473865
0	108749	556	189.50840195346
0	108749	556	189.78355519795
0	108749	556	190.40529643479
0	108749	556	191.79966748321
0	108749	556	192.83234193598
0	108749	556	195.3616911247
0	108749	556	195.94073494568
0	108749	556	196.38394011205
0	108749	556	196.86277109879
0	108749	556	196.90683243925
0	108749	556	197.04046056931
0	108749	556	197.62904759928
0	108749	556	198.43950791485
0	108749	556	198.6601145023
0	108749	556	201.43076189934
0	108749	556	202.45598104233
0	108749	556	203.64930744531
0	108749	556	204.38824728146
0	108749	556	204.39443596438
0	108749	556	206.16280830806
0	108749	556	206.70356898954
0	108749	556	206.71461305249
0	108749	556	206.75802162901
0	108749	556	206.82847974508
0	108749	556	207.58242539787
0	108749	556	207.76611068923
0	108749	556	207.9915471658
0	108749	556	208.22189355494
0	108749	556	208.37833078777
0	108749	556	210.55732838832
0	121231	621	221.17168932305
0	121231	621	221.54436110304
0	121231	621	221.64251112791
0	121231	621	221.99482261345
0	121231	621	222.30135015863
0	121231	621	222.51068209068
0	121231	621	223.19080681598
0	122594	628	197.68988398979
0	122594	628	197.87756667144
0	122594	628	198.98621052522
0	122594	628	199.72946880649
0	122594	628	200.48372131823
0	122594	628	200.54630434975
0	122594	628	200.73864615665
0	122594	628	200.79388767193
0	122594	628	202.22347798161
0	122594	628	202.32943343471
0	122594	628	202.57159491398
0	122594	628	203.55306435264
0	122594	628	204.06134680878
0	122594	628	204.06900897559
0	122594	628	204.07837336975
0	122594	628	204.94047194228
0	122594	628	206.97704512829
0	122594	628	207.01365004332
0	122594	628	207.27598498407
0	122594	628	207.370735325
0	122594	628	209.10844985988
0	122594	628	209.2846301693
0	122594	628	210.27971827876
0	122594	628	210.6283633812
0	122594	628	210.86789265128
0	122594	628	210.92427897913
0	122594	628	211.26427286836
0	122594	628	211.53439478992
0	122594	628	211.83116101619
0	122594	628	212.82278085242
0	122594	628	213.17608857193
0	122594	628	214.75634695901
0	122594	628	215.79320986591
0	122594	628	217.95318517718
0	122594	628	218.23384737588
0	122594	628	220.63980804587
0	122594	628	221.20123224776
0	122594	628	222.52249247516
0	122594	628	222.86987835589
0	122594	628	222.9385239317
0	122594	628	225.57027944341
0	122594	628	225.73962036231
0	122594	628	225.82534052049
0	122594	628	226.30270406582
0	122594	628	226.64451382757
0	122594	628	226.78486935304
0	122594	628	227.02060040322
0	133467	683	252.31262096204
0	134254	687	229.26231778782
0	134254	687	229.67293064368
0	134254	687	230.6799050445
0	134254	687	230.82621715176
0	134254	687	230.92171916601
0	134254	687	231.23064585104
0	134254	687	232.714701844
0	134254	687	232.92709107592
0	134254	687	232.93358134881
0	134254	687	233.52408844617
0	134254	687	233.57236785291
0	134254	687	233.88443882173
0	134254	687	234.01541341233
0	134254	687	234.21563013252
0	134254	687	234.97809054625
0	134254	687	235.97969907539
0	134254	687	237.23244469819
0	134254	687	238.23792151928
0	134254	687	238.39220216725
0	134254	687	239.18821108098
0	134254	687	239.90749568665
0	134254	687	239.94651428594
0	134254	687	240.00673911533
0	134254	687	241.04256945002
0	134254	687	241.51724149377
0	134254	687	241.65047851905
0	134254	687	242.81962161573
0	134254	687	243.1382336074
0	134254	687	243.5170139299
0	134254	687	243.73928282215
0	134254	687	245.01584432724
0	134254	687	245.80884182814
0	134254	687	246.19779100882
0	134254	687	246.96428526732
0	134254	687	247.46000739518
0	134254	687	247.86605036539
0	134254	687	248.27500975845
0	134254	687	248.47765746461
0	134254	687	248.92385937926
0	134254	687	249.16316692485
0	134254	687	249.59461672754
0	134254	687	249.63259441585
0	134254	687	250.2301472192
0	134254	687	250.32412580881
0	134254	687	250.52139372431
0	134254	687	250.73150041012
0	134254	687	250.79918979941
0	134254	687	251.66482022315
0	134254	687	251.98247261155
0	134254	687	253.29584432194
0	134254	687	254.47559087075
0	134254	687	255.01893642468
0	134254	687	255.94884915219
0	147569	754	294.5340187153
0	147744	755	295.50359334897
0	147931	756	295.66633102608
0	148127	757	259.36694892926
0	148127	757	259.37349188685
0	148127	757	259.49015525233
0	148127	757	260.46119539338
0	148127	757	260.64417107472
0	148127	757	261.52051914011
0	148127	757	262.19436524884
0	148127	757	262.21265998246
0	148127	757	263.15518220216
0	148127	757	263.99494298257
0	148127	757	264.25966361592
0	148127	757	264.8383102706
0	148127	757	265.64011945982
0	148127	757	266.06743515666
0	148127	757	266.84827761996
0	148127	757	267.2187168954
0	148127	757	268.78129665593
0	148127	757	268.84670967101
0	148127	757	269.18617799559
0	148127	757	270.58393551128
0	148127	757	271.44257682799
0	148127	757	272.51679816074
0	148127	757	272.9258676339
0	148127	757	272.98361229686
0	148127	757	274.40856009048
0	148127	757	276.01790437748
0	148127	757	276.42489294081
0	148127	757	276.48942458902
0	148127	757	277.01264926875
0	148127	757	277.58927467503
0	148127	757	279.15143462843
0	148127	757	279.24382584271
0	148127	757	279.38194929754
0	148127	757	279.49808177527
0	148127	757	281.5866347683
0	148127	757	281.6926427795
0	148127	757	282.02510433474
0	148127	757	282.28780938271
0	148127	757	282.37977820399
0	148127	757	282.89633979033
0	148127	757	283.11312037066
0	148127	757	283.81197977396
0	148127	757	284.57451002671
0	148127	757	284.67803375038
0	148127	757	285.19020264495
0	148127	757	285.30633275187
0	148127	757	285.78192227374
0	148127	757	286.32385451453
0	148127	757	286.69907131574
0	148127	757	287.71963692837
0	148127	757	287.74363881487
0	148127	757	288.17357780898
0	148127	757	288.86507453838
0	148127	757	288.99260523565
0	148127	757	291.12914445539
0	148127	757	291.48608068945
0	148127	757	292.06052568398
0	148127	757	292.50734693503
0	148127	757	292.75164779625
0	148127	757	294.18038092987
0	148127	757	294.66807782263
0	148127	757	295.09069924029
0	148127	757	295.14408514425
0	148127	757	295.59405246002
0	161363	823	284.56299349353
0	161363	823	285.18932815077
0	161363	823	285.25928331566
0	161363	823	286.01946923361
0	161363	823	287.78559474176
0	161363	823	288.29790312669
0	161363	823	288.63985445457
0	161363	823	289.88428143469
0	161363	823	290.02084961279
0	161363	823	290.52682612896
0	161363	823	290.53780165161
0	161363	823	290.86927450917
0	161363	823	291.16337771633
0	161363	823	291.55455692078
0	161363	823	291.84727491117
0	161363	823	291.93232396037
0	161363	823	294.06149854216
0	161363	823	294.30596864469
0	161363	823	294.32854988152
0	161363	823	295.23236222408
0	161363	823	296.49284832704
0	161363	823	297.36007327868
0	161363	823	297.55962553362
0	161363	823	297.95501326517
0	161363	823	298.32281567357
0	161363	823	300.16321864402
0	161363	823	300.20639577255
0	161363	823	302.19424887743
0	161363	823	302.5330618468
0	161363	823	303.20242929605
0	161363	823	303.86328229989
0	161363	823	303.92942998422
0	161363	823	304.04520102636
0	161363	823	304.10442261479
0	161363	823	305.23124591796
0	161363	823	308.48691191153
0	161363	823	310.08369843779
0	161363	823	310.1980575227
0	161363	823	311.34410373056
0	161363	823	312.66939670046
0	161363	823	313.2410201022
0	161363	823	313.88902736291
0	161363	823	315.91165574451
0	161363	823	315.98002367317
0	161363	823	316.3873953807
0	161363	823	316.93140775668
0	161363	823	318.23139236457
0	161363	823	320.28010917976
0	161363	823	320.87611011488
0	161363	823	321.34279387229
0	161363	823	321.75129083554
0	161363	823	321.92801956981
0	161363	823	324.06018955432
0	161363	823	324.30591151406
0	169730	865	318.03124006151
0	169730	865	318.07824136042
0	169730	865	318.77780280437
0	169730	865	319.15114171992
0	169730	865	319.63090498505
0	169730	865	319.64139106756
0	169730	865	320.13400441419
0	169730	865	320.15642702814
0	169730	865	321.37612179871
0	169730	865	322.01153682422
0	169730	865	322.19201975138
0	169730	865	322.36864304313
0	169730	865	322.42898135657
0	169730	865	322.69269175683
0	169730	865	322.73108703471
0	169730	865	323.1347095558
0	169730	865	323.19907040849
0	169730	865	324.55659986667
0	169730	865	324.62571375776
0	176234	898	329.60564908073
0	176234	898	329.85569037614
0	176234	898	329.90071314739
0	176234	898	330.20673176572
0	176234	898	333.23861433362
0	176234	898	333.91975989857
0	176234	898	334.36905552804
0	176234	898	335.46584447943
0	176234	898	336.14465619863
0	176234	898	337.33194598189
0	176234	898	337.45053048713
0	176234	898	337.69797163433
0	176234	898	338.04865883151
0	176234	898	338.07981543266
0	176234	898	341.17333542996
0	176234	898	341.48594964814
0	176234	898	343.92565772712
0	176234	898	344.11270834457
0	176234	898	344.75510347543
0	176234	898	347.42014579324
0	176234	898	347.50195579812
0	176234	898	347.9521930449
0	176234	898	347.96026587494
0	176234	898	348.27491126679
0	176234	898	348.36856174476
0	176234	898	349.35150989462
0	176234	898	349.5461406091
0	176234	898	350.12471518903
0	176234	898	350.29134906679
0	176234	898	350.3133517235
0	176234	898	350.50686733358
0	180573	920	350.58635650025
0	180781	921	312.4974745689
0	180781	921	312.94572983692
0	180781	921	313.02035953102
0	180781	921	313.19310103494
0	180781	921	313.3843737652
0	180781	921	313.56868890956
0	180781	921	316.78850240821
0	180781	921	316.874528077
0	180781	921	317.10903966728
0	180781	921	318.62484444507
0	180781	921	320.19373429046
0	180781	921	320.99006091946
0	180781	921	323.30529805673
0	180781	921	323.6258835396
0	180781	921	326.44789407049
0	180781	921	326.64614308909
0	180781	921	327.7709552816
0	180781	921	329.61705160349
0	180781	921	329.90272333961
0	180781	921	330.30017126721
0	180781	921	330.47669278277
0	180781	921	331.37137261022
0	180781	921	331.40277212426
0	180781	921	331.74058760019
0	180781	921	333.46713836386
0	180781	921	333.76796422952
0	180781	921	334.94402249097
0	180781	921	337.257785878
0	180781	921	337.5558791464
0	180781	921	337.95098409169
0	180781	921	338.30824995525
0	180781	921	339.20176726323
0	180781	921	340.01918873806
0	180781	921	341.17193516318
0	180781	921	341.39749924231
0	180781	921	341.76971710182
0	180781	921	342.30903689858
0	180781	921	342.76804615727
0	180781	921	343.13591423836
0	180781	921	344.41840661881
0	180781	921	344.9039916675
0	180781	921	346.64775228911
0	180781	921	347.37854732978
0	180781	921	348.04850286916
0	180781	921	348.23680067713
0	180781	921	348.55627580678
0	180781	921	349.28041134756
0	180781	921	350.04751974284
0	180781	921	350.2317232048
0	180781	921	350.28042430956