version 2
run General-0-20200903-19:00:23-2156
attr configname General
attr datetime 20200903-19:00:23
attr experiment General
attr inifile FairNetworkConf.ini
attr iterationvars "$nUser=3, $0=10"
attr iterationvarsf nUser=3,10-
attr measurement "$nUser=3, $0=10"
attr network FairNetwork
attr processid 2156
attr repetition 0
attr replication #0
attr resultdir results
attr runnumber 0
attr seedset 0
itervar nUser 3
param **.NUM_USER 3
param **.TIMESLOT 1000ms
param **.packetGenerator.senders[*].lambda 10

vector 0 FairNetwork.user[0] packetDelayStat:vector ETV
attr "" ""
attr source packetDelay
attr title "Packet delay, vector"
vector 1 FairNetwork.user[0] packetBytesStat:vector ETV
attr "" ""
attr source packetBytes
attr title "Packet bytes, vector"
vector 2 FairNetwork.user[0] userThroughputStat:vector ETV
attr "" ""
attr source userThroughput
attr title "User throughput, vector"
vector 3 FairNetwork.user[1] packetDelayStat:vector ETV
attr "" ""
attr source packetDelay
attr title "Packet delay, vector"
vector 4 FairNetwork.user[1] packetBytesStat:vector ETV
attr "" ""
attr source packetBytes
attr title "Packet bytes, vector"
vector 5 FairNetwork.user[1] userThroughputStat:vector ETV
attr "" ""
attr source userThroughput
attr title "User throughput, vector"
vector 6 FairNetwork.user[2] packetDelayStat:vector ETV
attr "" ""
attr source packetDelay
attr title "Packet delay, vector"
vector 7 FairNetwork.user[2] packetBytesStat:vector ETV
attr "" ""
attr source packetBytes
attr title "Packet bytes, vector"
vector 8 FairNetwork.user[2] userThroughputStat:vector ETV
attr "" ""
attr source userThroughput
attr title "User throughput, vector"
0	71	1	0.15280605295
0	71	1	0.231526166948
0	71	1	0.426680700536
0	71	1	0.519003013683
0	71	1	0.70496343489
0	71	1	0.830556510695
0	71	1	0.920412549543
0	401	4	1.862084979674
0	401	4	1.927029614499
0	401	4	1.975389824994
0	401	4	2.007225439078
0	401	4	2.338716667071
0	401	4	2.34455513398
0	401	4	2.566907576184
0	401	4	2.602223490098
0	401	4	2.659775409786
0	401	4	2.708288226158
0	401	4	2.812104156224
0	401	4	2.909804798863
0	401	4	2.96490964753
0	571	6	0.028954146432
0	571	6	0.044427114482
0	571	6	0.131659233986
0	571	6	0.233802421421
0	571	6	0.361325191643
0	571	6	0.373912632587
0	571	6	0.487506526758
0	571	6	0.639160124157
0	571	6	0.712656566276
0	571	6	0.774549512239
0	571	6	0.935949719728
0	571	6	1.096473675434
0	571	6	1.160644592702
0	571	6	1.545166779616
0	571	6	1.749256001207
0	571	6	1.953287427001
0	571	6	1.968410512367
0	571	6	2.118988938231
0	571	6	2.434005931099
0	571	6	2.612754697443
0	571	6	2.658679511169
0	571	6	2.660722070009
0	571	6	2.76518332084
0	571	6	2.774299423452
0	571	6	2.815457223076
0	571	6	2.822825758623
0	571	6	3.00366268505
0	571	6	3.263488093635
0	571	6	3.313375294537
0	571	6	3.397318579827
0	571	6	3.462706836549
0	571	6	3.53797424788
0	571	6	3.705195367912
0	977	10	1.257370506344
0	977	10	1.490005612513
0	977	10	1.547458853187
0	977	10	1.642408311537
0	977	10	1.686960161042
0	977	10	1.746734768724
0	977	10	1.861248664194
0	977	10	2.094140001615
0	977	10	2.381931503743
0	977	10	2.430787208674
0	977	10	2.526742006411
0	977	10	2.551886199618
0	977	10	2.646585867335
0	977	10	2.66279951628
0	977	10	2.758937610187
0	977	10	2.798114691255
0	977	10	2.800011548175
0	977	10	2.814539350904
0	977	10	2.898572821465
0	977	10	2.922977670539
0	977	10	2.983885912857
0	977	10	3.117414931319
0	977	10	3.266240413894
0	977	10	3.286860742097
0	977	10	3.317588777312
0	977	10	3.381758247515
0	977	10	3.435314819538
0	977	10	3.446509435601
0	977	10	3.520292164777
0	977	10	3.662428632786
0	977	10	3.951870680585
0	1141	12	0.077122804742
0	1141	12	0.182997076251
0	1141	12	0.719007111275
0	1141	12	0.736598465818
0	1141	12	0.83740039036
0	1141	12	0.860830542238
0	1141	12	0.966613183573
0	1141	12	0.977376694389
0	1141	12	1.296671358594
0	1141	12	1.742121043212
0	1141	12	1.842708143729
0	1141	12	1.90044057481
0	1141	12	1.904358890451
0	1141	12	1.988801669804
0	1141	12	2.028112925534
0	1141	12	2.073323131556
0	1141	12	2.166929287533
0	1141	12	2.204825483961
0	1141	12	2.34372975294
0	1141	12	2.357532621783
0	1141	12	2.401873024645
0	1141	12	2.425493695253
0	1141	12	2.444236301855
0	1141	12	2.555296046424
0	1141	12	2.661179459573
0	1141	12	2.771070706328
0	1141	12	3.121092074773
0	1141	12	3.12730360382
0	1141	12	3.137759726398
0	1347	14	1.960723166052
0	1347	14	1.989931219379
0	1532	16	3.844422540245
0	1532	16	3.907216698344
0	1638	17	0.019090649964
0	1638	17	0.025720390112
0	1638	17	0.276111568421
0	1638	17	0.329600005997
0	1638	17	0.542023725697
0	1638	17	0.580293820583
0	1638	17	0.696981173238
0	1638	17	0.709620036881
0	1638	17	0.775184665317
0	1638	17	0.810302274255
0	1638	17	0.854844220447
0	1638	17	0.867649896978
0	1638	17	1.256806909263
0	1638	17	1.290047933359
0	1638	17	1.348335772246
0	1638	17	1.352333402152
0	1638	17	1.354352414967
0	1638	17	1.488776942182
0	1638	17	1.548771630846
0	1638	17	1.641619480536
0	1638	17	1.647352173178
0	1638	17	2.023544901628
0	1638	17	2.094803260961
0	1638	17	2.158036920601
0	1638	17	2.36856905068
0	1638	17	2.743472196638
0	1638	17	3.100831033872
0	1638	17	3.110934511403
0	1638	17	3.222915947978
0	1638	17	3.404897839906
0	1638	17	3.502408033322
0	1638	17	3.512622521474
0	1638	17	3.513988979317
0	1638	17	3.686022145089
0	1638	17	3.794649083177
0	1638	17	3.840650478951
0	1638	17	4.139369468136
0	1638	17	4.161257527787
0	1638	17	4.311921061114
0	1638	17	4.326792288039
0	1638	17	4.364947872376
0	1638	17	4.471755092091
0	1638	17	4.584071922244
0	1638	17	4.595767463223
0	1638	17	4.637017586215
0	1638	17	4.65433033183
0	1638	17	4.752016739237
0	1638	17	4.780044440085
0	1723	18	0.509513995394
0	1723	18	0.709838047645
0	1723	18	0.793447800842
0	1723	18	0.876732152449
0	1723	18	0.994651105156
0	2017	21	2.094978405934
0	2017	21	2.279711171034
0	2017	21	2.389795762043
0	2017	21	2.390735837109
0	2017	21	2.429091858519
0	2017	21	2.461625900072
0	2017	21	2.72655149294
0	2017	21	2.735228541174
0	2017	21	2.821018105281
0	2017	21	3.075048556077
0	2017	21	3.084913586919
0	2017	21	3.333471822617
0	2017	21	3.407547717662
0	2017	21	3.478672511384
0	2172	23	0.034935081698
0	2172	23	0.419235740022
0	2172	23	0.606581728008
0	2172	23	0.666219667441
0	2172	23	0.725482070186
0	2172	23	0.839442866539
0	2172	23	1.144671032227
0	2172	23	1.366821722074
0	2172	23	1.392063721363
0	2172	23	1.493929594365
0	2172	23	1.578851675521
0	2172	23	1.805225033107
0	2172	23	1.894884120186
0	2172	23	1.945318500845
0	2172	23	2.031157797628
0	2172	23	2.172260238557
0	2172	23	2.200862335808
0	2172	23	2.257652751156
0	2172	23	2.585167068927
0	2172	23	2.619201742751
0	2172	23	2.752077530126
0	2172	23	2.87372839547
0	2172	23	2.905200561555
0	2172	23	2.98950886477
0	2172	23	3.102772278967
0	2172	23	3.11860642959
0	2172	23	3.119077083639
0	2172	23	3.165250173243
0	2172	23	3.341824280484
0	2172	23	3.359849505682
0	2172	23	3.361880751562
0	2172	23	3.442360491542
0	2172	23	3.530673395738
0	2172	23	3.581393408064
0	2172	23	3.601628451921
0	2172	23	3.632380224297
0	2172	23	3.666545641
0	2172	23	3.850673888149
0	2172	23	3.97666726916
0	2172	23	4.080845334578
0	2269	24	0.500210220937
0	2269	24	0.553282470599
0	2269	24	0.721374691054
0	2269	24	0.86705654691
0	2269	24	0.902358560237
0	2269	24	0.914711224973
0	2490	26	2.337180144478
0	2490	26	2.449708346162
0	2629	27	2.085026238799
0	2629	27	2.214217165679
0	2629	27	2.303003306723
0	2629	27	2.420941600087
0	2629	27	2.757378645392
0	2629	27	2.97086169039
0	2629	27	3.008435574631
0	2629	27	3.095489157264
0	2629	27	3.124230204871
0	2841	29	0.171765065062
0	2841	29	0.585546041113
0	2841	29	0.642792196256
0	2841	29	0.653024257741
0	2841	29	0.698841546137
0	2841	29	0.714070908662
0	2841	29	0.940934307931
0	2841	29	0.965942457429
0	2841	29	1.022403507541
0	2841	29	1.061116516756
0	2841	29	1.166701477622
0	2841	29	1.51395502555
0	2841	29	1.619855964088
0	2841	29	1.623276305924
0	2841	29	1.708684279488
0	2841	29	1.788939478064
0	2841	29	1.878312385895
0	2841	29	1.922015187272
0	2841	29	2.006404034531
0	2841	29	2.016096309989
0	2841	29	2.051518723214
0	2841	29	2.062373433063
0	2841	29	2.076930830908
0	2841	29	2.287675591403
0	2841	29	2.34367169841
0	2841	29	2.481969619064
0	2841	29	2.578207124641
0	2841	29	2.6265706933
0	2841	29	2.66083065577
0	2841	29	2.694797129028
0	2841	29	2.802729148894
0	2841	29	2.92863350062
0	2841	29	2.964526222207
0	2841	29	3.02803899377
0	2841	29	3.029976971905
0	2841	29	3.094387442737
0	2841	29	3.187627730778
0	2841	29	3.284073087327
0	2841	29	3.33921268634
0	2841	29	3.389443766166
0	2841	29	3.492723467231
0	2841	29	3.518929191399
0	2841	29	3.831476027165
0	2841	29	3.907662804295
0	2841	29	3.977242750385
0	3238	33	3.919117008017
0	3238	33	3.949273599339
0	3341	34	3.115191684942
0	3341	34	3.131378693613
0	3341	34	3.315351972121
0	3341	34	3.991891024115
0	3341	34	4.055237285887
0	3341	34	4.180498038378
0	3341	34	4.223932603972
0	3341	34	4.47586081698
0	3341	34	4.48634900054
0	3341	34	4.496910264903
0	3341	34	4.556317614735
0	3341	34	4.678019564269
0	3341	34	4.755027250224
0	3556	36	4.880173955967
0	3659	37	4.616527381298
0	3659	37	4.700715477471
0	3659	37	4.753715765285
0	3659	37	4.918387675418
0	3659	37	5.118586324971
0	3659	37	5.30697921363
0	3659	37	5.457961559191
0	3659	37	5.471179930152
0	3659	37	5.48943379034
0	3659	37	5.585030432732
0	3659	37	5.656022225454
0	3659	37	5.673754782969
0	3659	37	5.677583074257
0	3823	39	0.25214001022
0	3823	39	0.383118547356
0	3823	39	0.522086253734
0	3823	39	0.611224111425
0	3823	39	0.810941308174
0	3823	39	0.887649273631
0	3823	39	1.001308923157
0	3823	39	1.096491893911
0	3823	39	1.127588674408
0	3823	39	1.399723499999
0	3823	39	1.887636788798
0	3823	39	1.914803595832
0	3823	39	2.034900686486
0	3823	39	2.120993050154
0	3823	39	2.126161340734
0	3823	39	2.223309556543
0	3823	39	2.292629533497
0	3823	39	2.310625267652
0	3823	39	2.463708390279
0	3823	39	2.466944070744
0	3823	39	2.557740473476
0	3823	39	2.67962015381
0	3823	39	2.773334025582
0	3823	39	3.036555911837
0	3823	39	3.325010340678
0	3823	39	3.367376050814
0	3823	39	3.574979156858
0	3823	39	3.600329727372
0	3823	39	3.66258946177
0	3823	39	3.820430733981
0	3823	39	3.839182629101
0	3823	39	3.841052176143
0	3823	39	3.860835126889
0	3823	39	3.883149047699
0	3823	39	3.924546939966
0	3823	39	3.930133945255
0	3823	39	3.997379996938
0	3823	39	4.070993106937
0	3823	39	4.112454361203
0	3823	39	4.131283858725
0	3823	39	4.269912993927
0	3823	39	4.400842830329
0	3823	39	4.689304005539
0	3823	39	4.733929287591
0	3823	39	4.87870869579
0	3823	39	4.879887018982
0	3823	39	4.906119949899
0	3823	39	5.099777673648
0	3823	39	5.101454450247
0	3823	39	5.472450509437
0	3823	39	5.517941693916
0	3823	39	5.719218967537
0	3823	39	5.724410222755
0	3823	39	5.852443643136
0	3823	39	5.90692935595
0	3823	39	5.967359263135
0	3823	39	6.014086519776
0	3823	39	6.133630376404
0	3823	39	6.538615060284
0	3823	39	6.545782598715
0	3823	39	6.54916127727
0	3823	39	6.601448280279
0	4396	45	0.744387083442
0	4396	45	0.957743412189
0	4396	45	1.099781757748
0	4396	45	1.125816898903
0	4396	45	1.127903620764
0	4396	45	1.142663224053
0	4396	45	1.173223714234
0	4396	45	1.410115531318
0	4396	45	1.518905974679
0	4396	45	1.579789266053
0	4396	45	1.604238368257
0	4396	45	1.667631370196
0	4396	45	2.131596622833
0	4396	45	2.257016949842
0	4396	45	2.48400095142
0	4396	45	2.577406984681
0	4396	45	2.654318964791
0	4396	45	2.767354519382
0	4396	45	2.827812641216
0	4396	45	2.892935714408
0	4396	45	3.006689564962
0	4396	45	3.142882737393
0	4396	45	3.1498445045
0	4396	45	3.342680518188
0	4396	45	3.345179353519
0	4396	45	3.423376925607
0	4396	45	3.44317369914
0	4396	45	3.539317656297
0	4396	45	3.58675928533
0	4396	45	3.961428746713
0	4396	45	4.080614557078
0	4396	45	4.293481566531
0	4396	45	4.33084854597
0	4396	45	4.397759918339
0	4396	45	4.45474967487
0	4396	45	4.460556911082
0	4396	45	4.466535007374
0	4396	45	4.475450436374
0	4396	45	4.504801201566
0	4396	45	4.618914991852
0	4396	45	4.644716268246
0	4396	45	4.9961641363
0	4396	45	5.063588593264
0	4396	45	5.123756491916
0	4396	45	5.258291235239
0	4396	45	5.34258911278
0	4396	45	5.63149667197
0	4396	45	5.65618259885
0	4396	45	5.676785803698
0	4396	45	5.701945665009
0	4396	45	5.725498122351
0	4396	45	5.749373409636
0	4396	45	5.800159921905
0	4396	45	5.880957927245
0	4396	45	5.918346576835
0	4705	48	0.060307072619
0	4705	48	0.062906847138
0	4705	48	0.126725707697
0	4705	48	0.199748474221
0	4705	48	0.515458028363
0	4705	48	0.539450380307
0	4705	48	0.577093315459
0	4705	48	0.606388461308
0	4705	48	0.818663126702
0	4705	48	0.949913925999
0	4705	48	0.975977938937
0	4705	48	1.270425966679
0	4705	48	1.42589226046
0	4705	48	1.450164109827
0	4705	48	1.516214417802
0	4705	48	1.632525746145
0	4705	48	1.693430207416
0	4705	48	1.998748674375
0	4705	48	2.112654439442
0	4705	48	2.133189216316
0	4705	48	2.349765584403
0	4705	48	2.509737528587
0	4705	48	2.565154611492
0	4705	48	2.597112076979
0	4705	48	2.634488406361
0	4705	48	2.840570530449
0	4705	48	2.840576065639
0	4705	48	2.939726494929
0	4705	48	3.013063262246
0	4705	48	3.190877595929
0	4705	48	3.230134898748
0	4705	48	3.318885091596
0	4705	48	3.422670099145
0	4705	48	3.471033937894
0	4705	48	3.705818314037
0	4911	50	1.840748191798
0	4911	50	1.896032028863
0	4911	50	1.912719492986
0	4911	50	1.935971994824
0	5035	51	0.041415930266
0	5035	51	0.178850231708
0	5035	51	0.323805709351
0	5035	51	0.326898338507
0	5035	51	0.608961933349
0	5035	51	0.737004368747
0	5035	51	0.780949907796
0	5035	51	0.794283970123
0	5035	51	0.861238029209
0	5035	51	0.879265459167
0	5035	51	0.894913036205
0	5035	51	0.917837468726
0	5035	51	0.938083345096
0	5035	51	1.12160968539
0	5035	51	1.204947509455
0	5035	51	1.267151201363
0	5035	51	1.317579194688
0	5035	51	1.439479129206
0	5035	51	1.565660396555
0	5035	51	1.584886540639
0	5035	51	1.599050744119
0	5035	51	1.631470655468
0	5035	51	1.704323039741
0	5035	51	1.816669089696
0	5035	51	1.829172348688
0	5035	51	1.966640344068
0	5035	51	2.166044264196
0	5035	51	2.330851881512
0	5035	51	2.419230447115
0	5035	51	2.439866246475
0	5035	51	2.472387848273
0	5035	51	2.49657981275
0	5035	51	2.558862743726
0	5035	51	2.662783307384
0	5035	51	2.709650954982
0	5344	54	2.893602852862
0	5344	54	2.903319620699
0	5420	55	3.487991342591
0	5420	55	3.626322989206
0	5420	55	3.635033847532
0	5420	55	3.659553656796
0	5511	56	4.276089540494
0	5511	56	4.407652166324
0	5611	57	3.814614284911
0	5611	57	3.968397156359
0	5611	57	4.147396116807
0	5611	57	4.258237092228
0	5611	57	4.259165394666
0	5611	57	4.524421246218
0	5611	57	4.605535348441
0	5611	57	4.607191957883
0	5611	57	4.613703244362
0	5611	57	4.624271961772
0	5611	57	4.737363809691
0	5611	57	4.764916603395
0	5611	57	4.798732074879
0	5611	57	4.83328403325
0	5611	57	4.856749618176
0	5611	57	5.183599258258
0	5611	57	5.188268032622
0	5932	60	6.136024865896
0	5932	60	6.156069085405
0	5932	60	6.244357139901
0	5932	60	6.365926187237
0	5932	60	6.399017175355
0	6041	61	5.614998684226
0	6041	61	5.675726613088
0	6041	61	6.001618710806
0	6041	61	6.026260293027
0	6041	61	6.0675332797
0	6041	61	6.160794465227
0	6041	61	6.369950122489
0	6041	61	6.524851290405
0	6041	61	6.904253668714
0	6041	61	6.991110241861
0	6041	61	7.057591016816
0	6041	61	7.129415664827
0	6120	62	0.01345204386
0	6120	62	0.168981479895
0	6120	62	0.492977776585
0	6120	62	0.53507710639
0	6120	62	0.895971206888
0	6120	62	0.980184837172
0	6120	62	1.178373871283
0	6120	62	1.230481753391
0	6120	62	1.240778589763
0	6120	62	1.635541916519
0	6120	62	1.660943054354
0	6120	62	1.673801078082
0	6120	62	1.745405609881
0	6120	62	1.796677074144
0	6120	62	1.817730402964
0	6120	62	1.85309006049
0	6120	62	2.025753398464
0	6120	62	2.081654165463
0	6120	62	2.096376669194
0	6120	62	2.149223392024
0	6120	62	2.195202523802
0	6120	62	2.226602313608
0	6120	62	2.328621022403
0	6120	62	2.329026654535
0	6120	62	2.397821002381
0	6120	62	2.537888572077
0	6120	62	2.602968306313
0	6120	62	3.023154248938
0	6120	62	3.423949214425
0	6120	62	3.575556107408
0	6120	62	3.591589516857
0	6120	62	3.789864407317
0	6120	62	3.832517988521
0	6120	62	4.198483721597
0	6120	62	4.19981624608
0	6120	62	4.348240494345
0	6120	62	4.444441687004
0	6120	62	4.466051308663
0	6120	62	4.655061478473
0	6120	62	4.841204642771
0	6120	62	4.87587997315
0	6120	62	4.944823426935
0	6120	62	5.152199573245
0	6120	62	5.275487619548
0	6120	62	5.375033983885
0	6120	62	5.441618232549
0	6120	62	5.602164108856
0	6120	62	5.727887808413
0	6120	62	6.011551827751
0	6120	62	6.079332027957
0	6120	62	6.377552095504
0	6120	62	6.588640972942
0	6668	67	1.944376648302
0	6668	67	2.121338630623
0	6668	67	2.202840463713
0	6668	67	2.342327372839
0	6668	67	2.396893144316
0	6668	67	2.453482598479
0	6668	67	2.481635000726
0	6668	67	2.647931578793
0	6668	67	2.759420320984
0	6668	67	2.872558197744
0	6668	67	2.881945652472
0	6668	67	2.910796923507
0	6668	67	2.919083150799
0	6668	67	3.13352169725
0	6668	67	3.149415015216
0	6668	67	3.185739237106
0	6668	67	3.332959652905
0	6668	67	3.409202021326
0	6668	67	3.410351346347
0	6668	67	3.411756005471
0	6668	67	3.541070791351
0	6668	67	3.846556769252
0	6668	67	3.852047506507
0	6668	67	3.891397747619
0	6668	67	3.905610298758
0	6668	67	4.16626747899
0	6668	67	4.192694525404
0	6668	67	4.341957741823
0	6668	67	4.394254507189
0	6668	67	4.430183897702
0	6668	67	4.438641846878
0	6668	67	4.489640930263
0	6668	67	4.530159218497
0	6668	67	4.574674152438
0	6668	67	4.723417127872
0	6668	67	4.776413285799
0	6762	68	2.699723033483
0	6762	68	2.747370891743
0	6950	70	3.106385417513
0	6950	70	3.177586224075
0	6950	70	3.197571777867
0	6950	70	3.372943242369
0	6950	70	3.42073504112
0	6950	70	3.477552089494
0	6950	70	3.510892423332
0	6950	70	3.702376649096
0	6950	70	3.821326274229
0	6950	70	3.879668651333
0	6950	70	3.994642790108
0	6950	70	4.069001109286
0	6950	70	4.129907554818
0	6950	70	4.191251463777
0	6950	70	4.2216486197
0	6950	70	4.288578906899
0	6950	70	4.324475038737
0	6950	70	4.389192509141
0	6950	70	4.394889162388
0	6950	70	4.48452208289
0	6950	70	4.498618871332
0	6950	70	4.528209058657
0	6950	70	4.559725061529
0	6950	70	4.569878469923
0	7144	72	1.245949912791
0	7144	72	1.317288341071
0	7144	72	1.39857817719
0	7144	72	1.454860697372
0	7144	72	1.607945539266
0	7144	72	1.611545822241
0	7144	72	1.676036671358
0	7144	72	1.779761180768
0	7144	72	1.798890785358
0	7144	72	2.119371668319
0	7144	72	2.172912103428
0	7144	72	2.259078852608
0	7144	72	2.326102040266
0	7144	72	2.362747169449
0	7144	72	2.577057139492
0	7144	72	2.650211673405
0	7144	72	2.713604886054
0	7144	72	2.721612771648
0	7144	72	2.789107869013
0	7144	72	2.949949653922
0	7144	72	3.075539002356
0	7144	72	3.080102807306
0	7144	72	3.339347668184
0	7144	72	3.400939596562
0	7144	72	3.551985756684
0	7144	72	3.573932572773
0	7144	72	3.588257874911
0	7144	72	3.634596877665
0	7144	72	3.857205276609
0	7144	72	3.889063661397
0	7144	72	3.890037202331
0	7144	72	3.978613266934
0	7144	72	3.985855177945
0	7144	72	4.032665823268
0	7144	72	4.052312011858
0	7144	72	4.082344519887
0	7144	72	4.196713581946
0	7144	72	4.346954861317
0	7144	72	4.534866704738
0	7144	72	4.685688227901
0	7144	72	4.708830325097
0	7144	72	4.828231662157
0	7144	72	4.936124353007
0	7144	72	4.941977142902
0	7144	72	4.95101086731
0	7453	75	3.793171407417
0	7453	75	3.80696673061
0	7453	75	3.88445096856
0	7453	75	3.916968055609
0	7453	75	4.021796966105
0	7453	75	4.136176504017
0	7453	75	4.151705062567
0	7453	75	4.228530396754
0	7562	76	4.753765650222
0	7671	77	3.175746540599
0	7671	77	3.296017918982
0	7671	77	3.360115273508
0	7671	77	3.477241643003
0	7671	77	3.532807534319
0	7671	77	3.767194498399
0	7671	77	3.777006450662
0	7671	77	3.827926699349
0	7671	77	4.037590326701
0	7671	77	4.166386524209
0	7671	77	4.327519724121
0	7671	77	4.388880145095
0	7671	77	4.39754184454
0	7671	77	4.611284013582
0	7671	77	4.852685656633
0	7671	77	4.913733941133
0	7671	77	4.923413688364
0	7671	77	5.001897390323
0	7671	77	5.088391201266
0	7671	77	5.322715194275
0	7671	77	5.336573876417
0	7671	77	5.357292394642
0	7671	77	5.3747122663
0	7671	77	5.687995215255
0	7671	77	5.703896416935
0	8053	81	6.37352328786
0	8053	81	6.519179309018
0	8053	81	6.546625661218
0	8053	81	6.678077871026
0	8053	81	6.779154787336
0	8053	81	6.781898997379
0	8053	81	6.923277330333
0	8053	81	7.049241447395
0	8053	81	7.088949542397
0	8253	83	7.008109307114
0	8253	83	7.08971116351
0	8253	83	7.284708854695
0	8253	83	7.592016376974
0	8253	83	7.681416517242
0	8253	83	7.751419080854
0	8253	83	7.81269362534
0	8253	83	7.839202935481
0	8253	83	8.159028433158
0	8253	83	8.195886727119
0	8253	83	8.355042339398
0	8253	83	8.356023783038
0	8320	84	1.876030100045
0	8320	84	1.954686009234
0	8320	84	1.96173620407
0	8320	84	2.066670420663
0	8320	84	2.122671257996
0	8320	84	2.194635747765
0	8320	84	2.196208660142
0	8320	84	2.270100662136
0	8320	84	2.273464054228
0	8320	84	2.456418269814
0	8320	84	2.551730523641
0	8320	84	2.578802962715
0	8320	84	2.605296456479
0	8320	84	2.614347203494
0	8320	84	2.653903763534
0	8320	84	2.659663055216
0	8320	84	2.72020643338
0	8320	84	2.729860561283
0	8320	84	2.93348998001
0	8320	84	2.943857063674
0	8320	84	3.23444902404
0	8320	84	3.328399222626
0	8320	84	3.338892497359
0	8320	84	3.452920385051
0	8320	84	3.717839211274
0	8320	84	3.794685469013
0	8320	84	3.845978168196
0	8320	84	4.032642215214
0	8320	84	4.053127441929
0	8320	84	4.129023919354
0	8320	84	4.130670247752
0	8320	84	4.180391176386
0	8320	84	4.224506657459
0	8320	84	4.283183538127
0	8320	84	4.327091236686
0	8320	84	4.339848594066
0	8320	84	4.659224781334
0	8320	84	4.695895296713
0	8320	84	4.699282482237
0	8320	84	4.834854333622
0	8320	84	5.023927249065
0	8320	84	5.154010991811
0	8320	84	5.183943830053
0	8320	84	5.243251989786
0	8320	84	5.298422351045
0	8320	84	5.574482796613
0	8320	84	5.580959365892
0	8320	84	5.879137331625
0	8320	84	5.92995927703
0	8320	84	6.030364394418
0	8320	84	6.129492344994
0	8320	84	6.139414497642
0	8320	84	6.156780153963
0	8320	84	6.165663392228
0	8320	84	6.334686887704
0	8320	84	6.823036786739
0	8320	84	7.062554765678
0	8320	84	7.079708628415
0	8320	84	7.251615559594
0	8320	84	7.450409505078
0	8320	84	7.536153015339
0	8320	84	7.633354104445
0	8320	84	7.936748361685
0	8320	84	7.947003550985
0	8584	87	4.843702360027
0	8584	87	4.847002758533
0	8824	90	2.091603373654
0	8824	90	2.438667881708
0	8824	90	2.483381871968
0	8824	90	2.542647613762
0	8824	90	2.596237493296
0	8824	90	2.730265089494
0	8824	90	2.852878310717
0	8824	90	3.025790274485
0	8824	90	3.059624886355
0	8824	90	3.115457565281
0	8824	90	3.196355534794
0	8824	90	3.265206923598
0	8824	90	3.320387135762
0	8824	90	3.512760992829
0	8824	90	3.585598750132
0	8824	90	3.847162843374
0	8824	90	3.956782099475
0	8824	90	4.057275430381
0	8824	90	4.085520101577
0	8824	90	4.133441371025
0	8824	90	4.242061702141
0	8824	90	4.357127961434
0	8824	90	4.384758480727
0	8824	90	4.392063646442
0	8824	90	4.426087368403
0	8824	90	4.587953475045
0	8824	90	4.740847362116
0	8824	90	4.778353556428
0	8824	90	4.785106972116
0	8824	90	4.831009764865
0	8824	90	5.285792150051
0	8824	90	5.387963984792
0	8824	90	5.455358329214
0	8824	90	5.619876671921
0	8824	90	5.721698429802
0	8824	90	5.899791897291
0	8824	90	5.917579573077
0	8824	90	5.954695745157
0	8824	90	6.007298824733
0	8824	90	6.011972314907
0	8824	90	6.476000314502
0	8824	90	6.522892447229
0	8824	90	6.888848659075
0	8824	90	6.916906251693
0	8824	90	7.013265521322
0	8824	90	7.413021868994
0	8824	90	7.425293369726
0	8824	90	7.492828956743
0	8824	90	7.494039881249
0	8824	90	7.541236690026
0	8824	90	7.555284261722
0	8824	90	7.7027264842
0	8824	90	7.731921091373
0	8824	90	7.818707278362
0	9167	94	2.423124358124
0	9167	94	2.724621185343
0	9167	94	2.791859475547
0	9167	94	2.803053929661
0	9167	94	2.828965155249
0	9167	94	2.857656064787
0	9167	94	2.885303336441
0	9167	94	3.368275361238
0	9167	94	3.381179211556
0	9167	94	3.416355950099
0	9167	94	3.643726666768
0	9167	94	3.879060143575
0	9167	94	3.998509137926
0	9167	94	4.345794708516
0	9167	94	4.393882530946
0	9167	94	4.817184110579
0	9167	94	4.84692146337
0	9167	94	5.015643292246
0	9167	94	5.29255774053
0	9167	94	5.335408500948
0	9167	94	5.395025690088
0	9167	94	5.421503917422
0	9167	94	5.55570589154
0	9167	94	5.560415818646
0	9167	94	5.611088140036
0	9167	94	5.870070754586
0	9167	94	5.915194634435
0	9570	98	6.201002939804
0	9725	100	4.923012251861
0	9725	100	5.124970702183
0	9725	100	5.204492922314
0	9725	100	5.305004487171
0	9725	100	5.327508736557
0	9725	100	5.613251271339
0	9725	100	5.694300586057
0	9725	100	5.76409434094
0	9725	100	5.898184513399
0	9725	100	5.925331510042
0	9725	100	5.968697995579
0	9725	100	6.151450622361
0	9725	100	6.368573210496
0	9725	100	6.404881094514
0	9725	100	6.440013222668
0	9725	100	6.499668214356
0	9725	100	6.569772765289
0	9725	100	6.588629237714
0	9725	100	6.747364960683
0	9725	100	6.774520539851
0	9725	100	6.888500080517
0	9725	100	7.026645988502
0	9725	100	7.065862117464
0	9725	100	7.112749933027
0	9725	100	7.159629502191
0	9725	100	7.207281084288
0	9725	100	7.221531378853
0	9725	100	7.253336833372
0	9725	100	7.353066725789
0	9725	100	7.566536965243
0	9725	100	7.578620104869
0	9725	100	7.709816412977
0	9725	100	7.958379521412
0	9725	100	7.964392358325
0	9725	100	8.013044272301
0	9725	100	8.130087845302
0	9725	100	8.174421284902
1	71	1	20
1	71	1	22
1	71	1	1
1	71	1	73
1	71	1	57
1	71	1	4
1	71	1	25
1	401	4	3
1	401	4	67
1	401	4	23
1	401	4	27
1	401	4	15
1	401	4	40
1	401	4	45
1	401	4	21
1	401	4	39
1	401	4	22
1	401	4	11
1	401	4	42
1	401	4	75
1	571	6	33
1	571	6	17
1	571	6	75
1	571	6	2
1	571	6	34
1	571	6	47
1	571	6	38
1	571	6	72
1	571	6	57
1	571	6	57
1	571	6	38
1	571	6	64
1	571	6	19
1	571	6	65
1	571	6	1
1	571	6	55
1	571	6	29
1	571	6	22
1	571	6	50
1	571	6	21
1	571	6	38
1	571	6	49
1	571	6	34
1	571	6	44
1	571	6	8
1	571	6	63
1	571	6	25
1	571	6	30
1	571	6	70
1	571	6	52
1	571	6	2
1	571	6	61
1	571	6	64
1	977	10	69
1	977	10	11
1	977	10	12
1	977	10	56
1	977	10	61
1	977	10	34
1	977	10	10
1	977	10	49
1	977	10	33
1	977	10	30
1	977	10	40
1	977	10	57
1	977	10	22
1	977	10	55
1	977	10	75
1	977	10	60
1	977	10	49
1	977	10	45
1	977	10	37
1	977	10	29
1	977	10	3
1	977	10	53
1	977	10	34
1	977	10	62
1	977	10	49
1	977	10	31
1	977	10	38
1	977	10	14
1	977	10	56
1	977	10	19
1	977	10	17
1	1141	12	25
1	1141	12	9
1	1141	12	21
1	1141	12	9
1	1141	12	54
1	1141	12	28
1	1141	12	17
1	1141	12	61
1	1141	12	33
1	1141	12	44
1	1141	12	58
1	1141	12	8
1	1141	12	23
1	1141	12	63
1	1141	12	21
1	1141	12	3
1	1141	12	64
1	1141	12	19
1	1141	12	2
1	1141	12	53
1	1141	12	46
1	1141	12	36
1	1141	12	66
1	1141	12	51
1	1141	12	40
1	1141	12	17
1	1141	12	20
1	1141	12	45
1	1141	12	45
1	1347	14	10
1	1347	14	20
1	1532	16	51
1	1532	16	27
1	1638	17	12
1	1638	17	35
1	1638	17	73
1	1638	17	50
1	1638	17	36
1	1638	17	12
1	1638	17	11
1	1638	17	29
1	1638	17	13
1	1638	17	71
1	1638	17	57
1	1638	17	56
1	1638	17	37
1	1638	17	48
1	1638	17	61
1	1638	17	14
1	1638	17	42
1	1638	17	64
1	1638	17	69
1	1638	17	14
1	1638	17	72
1	1638	17	52
1	1638	17	18
1	1638	17	12
1	1638	17	52
1	1638	17	34
1	1638	17	33
1	1638	17	61
1	1638	17	40
1	1638	17	54
1	1638	17	33
1	1638	17	18
1	1638	17	31
1	1638	17	45
1	1638	17	63
1	1638	17	21
1	1638	17	25
1	1638	17	27
1	1638	17	73
1	1638	17	43
1	1638	17	37
1	1638	17	72
1	1638	17	45
1	1638	17	14
1	1638	17	33
1	1638	17	10
1	1638	17	6
1	1638	17	61
1	1723	18	46
1	1723	18	57
1	1723	18	1
1	1723	18	5
1	1723	18	60
1	2017	21	72
1	2017	21	42
1	2017	21	22
1	2017	21	45
1	2017	21	50
1	2017	21	58
1	2017	21	40
1	2017	21	31
1	2017	21	8
1	2017	21	43
1	2017	21	30
1	2017	21	35
1	2017	21	22
1	2017	21	72
1	2172	23	41
1	2172	23	13
1	2172	23	61
1	2172	23	65
1	2172	23	40
1	2172	23	61
1	2172	23	20
1	2172	23	71
1	2172	23	7
1	2172	23	35
1	2172	23	19
1	2172	23	24
1	2172	23	22
1	2172	23	38
1	2172	23	4
1	2172	23	27
1	2172	23	33
1	2172	23	54
1	2172	23	72
1	2172	23	65
1	2172	23	19
1	2172	23	51
1	2172	23	24
1	2172	23	44
1	2172	23	53
1	2172	23	25
1	2172	23	36
1	2172	23	27
1	2172	23	13
1	2172	23	55
1	2172	23	70
1	2172	23	20
1	2172	23	10
1	2172	23	53
1	2172	23	41
1	2172	23	37
1	2172	23	46
1	2172	23	23
1	2172	23	16
1	2172	23	35
1	2269	24	36
1	2269	24	1
1	2269	24	22
1	2269	24	59
1	2269	24	43
1	2269	24	5
1	2490	26	69
1	2490	26	22
1	2629	27	26
1	2629	27	68
1	2629	27	72
1	2629	27	66
1	2629	27	33
1	2629	27	46
1	2629	27	71
1	2629	27	42
1	2629	27	70
1	2841	29	20
1	2841	29	73
1	2841	29	22
1	2841	29	5
1	2841	29	61
1	2841	29	43
1	2841	29	50
1	2841	29	35
1	2841	29	63
1	2841	29	4
1	2841	29	69
1	2841	29	13
1	2841	29	54
1	2841	29	2
1	2841	29	52
1	2841	29	11
1	2841	29	26
1	2841	29	75
1	2841	29	8
1	2841	29	37
1	2841	29	31
1	2841	29	18
1	2841	29	24
1	2841	29	13
1	2841	29	27
1	2841	29	22
1	2841	29	64
1	2841	29	30
1	2841	29	19
1	2841	29	60
1	2841	29	51
1	2841	29	39
1	2841	29	66
1	2841	29	35
1	2841	29	61
1	2841	29	6
1	2841	29	15
1	2841	29	48
1	2841	29	47
1	2841	29	71
1	2841	29	4
1	2841	29	31
1	2841	29	12
1	2841	29	23
1	2841	29	27
1	3238	33	19
1	3238	33	2
1	3341	34	37
1	3341	34	1
1	3341	34	27
1	3341	34	63
1	3341	34	7
1	3341	34	45
1	3341	34	40
1	3341	34	20
1	3341	34	75
1	3341	34	4
1	3341	34	50
1	3341	34	56
1	3341	34	70
1	3556	36	55
1	3659	37	1
1	3659	37	57
1	3659	37	5
1	3659	37	27
1	3659	37	25
1	3659	37	12
1	3659	37	32
1	3659	37	45
1	3659	37	75
1	3659	37	19
1	3659	37	24
1	3659	37	37
1	3659	37	38
1	3823	39	73
1	3823	39	41
1	3823	39	5
1	3823	39	33
1	3823	39	45
1	3823	39	25
1	3823	39	43
1	3823	39	45
1	3823	39	64
1	3823	39	19
1	3823	39	61
1	3823	39	57
1	3823	39	36
1	3823	39	23
1	3823	39	41
1	3823	39	52
1	3823	39	29
1	3823	39	21
1	3823	39	44
1	3823	39	59
1	3823	39	20
1	3823	39	66
1	3823	39	3
1	3823	39	31
1	3823	39	67
1	3823	39	70
1	3823	39	72
1	3823	39	46
1	3823	39	29
1	3823	39	29
1	3823	39	14
1	3823	39	16
1	3823	39	34
1	3823	39	10
1	3823	39	24
1	3823	39	23
1	3823	39	68
1	3823	39	21
1	3823	39	8
1	3823	39	33
1	3823	39	30
1	3823	39	54
1	3823	39	21
1	3823	39	66
1	3823	39	13
1	3823	39	26
1	3823	39	9
1	3823	39	50
1	3823	39	22
1	3823	39	47
1	3823	39	47
1	3823	39	69
1	3823	39	34
1	3823	39	39
1	3823	39	62
1	3823	39	55
1	3823	39	10
1	3823	39	60
1	3823	39	6
1	3823	39	11
1	3823	39	56
1	3823	39	21
1	4396	45	71
1	4396	45	14
1	4396	45	31
1	4396	45	51
1	4396	45	12
1	4396	45	41
1	4396	45	8
1	4396	45	21
1	4396	45	34
1	4396	45	55
1	4396	45	41