version 2
run General-0-20200904-16:08:25-9696
attr configname General
attr datetime 20200904-16:08:25
attr experiment General
attr inifile FairNetworkConf.ini
attr iterationvars "$nUser=3, $0=100"
attr iterationvarsf nUser=3,100-
attr measurement "$nUser=3, $0=100"
attr network FairNetwork
attr processid 9696
attr repetition 0
attr replication #0
attr resultdir results
attr runnumber 0
attr seedset 0
itervar nUser 3
param **.NUM_USER 3
param **.TIMESLOT 1000ms
param **.packetGenerator.senders[*].lambda 100

vector 0 FairNetwork.user[0] packetDelayStat:vector ETV
attr "" ""
attr source packetDelay
attr title "Packet delay, vector"
vector 1 FairNetwork.user[0] packetBytesStat:vector ETV
attr "" ""
attr source packetBytes
attr title "Packet bytes, vector"
vector 2 FairNetwork.user[0] userThroughputStat:vector ETV
attr "" ""
attr source userThroughput
attr title "User throughput, vector"
vector 3 FairNetwork.user[1] userThroughputStat:vector ETV
attr "" ""
attr source userThroughput
attr title "User throughput, vector"
vector 4 FairNetwork.user[2] userThroughputStat:vector ETV
attr "" ""
attr source userThroughput
attr title "User throughput, vector"
vector 5 FairNetwork.user[1] packetDelayStat:vector ETV
attr "" ""
attr source packetDelay
attr title "Packet delay, vector"
vector 6 FairNetwork.user[1] packetBytesStat:vector ETV
attr "" ""
attr source packetBytes
attr title "Packet bytes, vector"
vector 7 FairNetwork.user[2] packetDelayStat:vector ETV
attr "" ""
attr source packetDelay
attr title "Packet delay, vector"
vector 8 FairNetwork.user[2] packetBytesStat:vector ETV
attr "" ""
attr source packetBytes
attr title "Packet bytes, vector"
0	914	1	0.326624041392
0	914	1	0.328686074212
0	914	1	0.331758877734
0	914	1	0.338175824754
0	914	1	0.343531481956
0	914	1	0.344650943562
0	914	1	0.35202921648
0	914	1	0.366242863281
0	914	1	0.395187068061
0	914	1	0.402895414646
0	914	1	0.404442711451
0	914	1	0.413165923401
0	914	1	0.423380242144
0	914	1	0.436132519166
0	914	1	0.43739126326
0	914	1	0.448750652677
0	914	1	0.463916012417
0	914	1	0.471265656629
0	914	1	0.477454951225
0	914	1	0.493594971974
0	914	1	0.509647367545
0	914	1	0.516064459272
0	914	1	0.554516677963
0	914	1	0.574925600122
0	914	1	0.595328742701
0	914	1	0.596841051238
0	914	1	0.611898893824
0	914	1	0.643400593111
0	914	1	0.661275469745
0	914	1	0.665867951118
0	914	1	0.666072207002
0	914	1	0.676518332085
0	914	1	0.677429942346
0	914	1	0.681545722308
0	914	1	0.682282575863
0	914	1	0.700366268506
0	914	1	0.726348809364
0	914	1	0.731337529454
0	914	1	0.739731857983
0	914	1	0.746270683655
0	914	1	0.753797424788
0	914	1	0.770519536791
0	914	1	0.786208497967
0	914	1	0.79270296145
0	914	1	0.797538982499
0	914	1	0.800722543907
0	914	1	0.833871666706
0	914	1	0.834455513397
0	914	1	0.856690757617
0	914	1	0.860222349008
0	914	1	0.865977540977
0	914	1	0.870828822614
0	914	1	0.881210415621
0	914	1	0.890980479885
0	914	1	0.896490964752
0	914	1	0.915280605294
0	914	1	0.923152616694
0	914	1	0.942668070053
0	914	1	0.951900301368
0	914	1	0.970496343489
0	914	1	0.983055651069
0	914	1	0.992041254954
0	4596	5	3.732679228803
0	4596	5	3.736494787237
0	4596	5	3.747175509208
0	4596	5	3.758407192223
0	4596	5	3.759576746321
0	4596	5	3.76370175862
0	4596	5	3.765433033181
0	4596	5	3.775201673922
0	4596	5	3.778004444007
0	4596	5	3.784442254023
0	4596	5	3.790721669833
0	4596	5	3.796072316604
0	4596	5	3.798993121937
0	4596	5	3.807712280473
0	4596	5	3.818299707624
0	4596	5	3.871900711126
0	4596	5	3.87365984658
0	4596	5	3.883740039034
0	4596	5	3.886083054222
0	4596	5	3.896661318356
0	4596	5	3.897737669438
0	4596	5	3.929667135859
0	4596	5	3.974212104321
0	4596	5	3.984270814373
0	4596	5	3.990044057481
0	4596	5	3.990435889045
0	4596	5	3.99888016698
0	4596	5	4.002811292553
0	4596	5	4.007332313155
0	4596	5	4.016692928753
0	4596	5	4.020482548396
0	4596	5	4.034372975294
0	4596	5	4.035753262178
0	4596	5	4.040187302464
0	4596	5	4.042549369525
0	4596	5	4.044423630185
0	4596	5	4.055529604642
0	4596	5	4.066117945957
0	4596	5	4.077107070633
0	4596	5	4.112109207478
0	4596	5	4.112730360383
0	4596	5	4.113775972641
0	4596	5	4.125737050636
0	4596	5	4.149000561253
0	4596	5	4.15474588532
0	4596	5	4.164240831155
0	4596	5	4.168696016106
0	4596	5	4.174673476874
0	4596	5	4.186124866421
0	4596	5	4.209414000163
0	4596	5	4.238193150376
0	4596	5	4.243078720869
0	4596	5	4.252674200643
0	4596	5	4.255188619964
0	4596	5	4.264658586736
0	4596	5	4.26627995163
0	4596	5	4.275893761021
0	4596	5	4.279811469128
0	4596	5	4.28000115482
0	4596	5	4.281453935093
0	4596	5	4.289857282149
0	4596	5	4.292297767056
0	4596	5	4.298388591288
0	4596	5	4.311741493134
0	7461	8	6.10949784059
0	7461	8	6.1279711171
0	7461	8	6.138979576201
0	7461	8	6.139073583708
0	7461	8	6.142909185849
0	7461	8	6.146162590004
0	7461	8	6.172655149291
0	7461	8	6.173522854114
0	7461	8	6.182101810525
0	7461	8	6.207504855605
0	7461	8	6.208491358689
0	7461	8	6.233347182259
0	7461	8	6.240754771763
0	7461	8	6.247867251135
0	7461	8	6.250951399536
0	7461	8	6.270983804761
0	7461	8	6.279344780081
0	7461	8	6.287673215242
0	7461	8	6.299465110513
0	7461	8	6.301909064994
0	7461	8	6.302572039009
0	7461	8	6.32761115684
0	7461	8	6.332960000598
0	7461	8	6.354202372568
0	7461	8	6.358029382057
0	7461	8	6.369698117322
0	7461	8	6.370962003686
0	7461	8	6.37751846653
0	7461	8	6.381030227424
0	7461	8	6.385484422043
0	7461	8	6.386764989696
0	7461	8	6.425680690924
0	7461	8	6.429004793334
0	7461	8	6.434833577223
0	7461	8	6.435233340214
0	7461	8	6.435435241495
0	7461	8	6.448877694217
0	7461	8	6.454877163083
0	7461	8	6.464161948052
0	7461	8	6.464735217316
0	7461	8	6.502354490161
0	7461	8	6.509480326094
0	7461	8	6.515803692058
0	7461	8	6.536856905066
0	7461	8	6.574347219662
0	7461	8	6.610083103385
0	7461	8	6.611093451138
0	7461	8	6.622291594796
0	7461	8	6.640489783989
0	7461	8	6.650240803331
0	7461	8	6.651262252146
0	7461	8	6.65139889793
0	7461	8	6.668602214507
0	7461	8	6.679464908316
0	7461	8	6.684065047893
0	7461	8	6.713936946812
0	7461	8	6.716125752777
0	7461	8	6.73119210611
0	11011	12	9.449272346717
0	11011	12	9.451892919134
0	11011	12	9.483147602711
0	11011	12	9.490766280424
0	11011	12	9.497724275033
0	11011	12	9.508502623874
0	11011	12	9.521421716562
0	11011	12	9.530300330666
0	11011	12	9.542094160002
0	11011	12	9.575737864533
0	11011	12	9.597086169033
0	11011	12	9.600843557457
0	11011	12	9.60954891572
0	11011	12	9.612423020481
0	11011	12	9.633718014442
0	11011	12	9.64497083461
0	11011	12	9.650021022088
0	11011	12	9.655328247054
0	11011	12	9.672137469099
0	11011	12	9.686705654685
0	11011	12	9.690235856018
0	11011	12	9.691471122492
0	11011	12	9.703493508164
0	11011	12	9.741923573996
0	11011	12	9.760658172795
0	11011	12	9.766621966738
0	11011	12	9.772548207013
0	11011	12	9.783944286648
0	11011	12	9.814467103217
0	11011	12	9.836682172202
0	11011	12	9.839206372131
0	11011	12	9.849392959431
0	11011	12	9.857885167547
0	11011	12	9.880522503306
0	11011	12	9.889488412014
0	11011	12	9.89453185008
0	11011	12	9.903115779758
0	11011	12	9.917226023851
0	11011	12	9.920086233576
0	11011	12	9.925765275111
0	11011	12	9.958516706888
0	11011	12	9.96192017427
0	11011	12	9.975207753008
0	11011	12	9.987372839542
0	11011	12	9.990520056151
0	11011	12	9.998950886472
0	11011	12	10.010277227892
0	11011	12	10.011860642954
0	11011	12	10.011907708359
0	11011	12	10.016525017319
0	11011	12	10.034182428043
0	11011	12	10.035984950563
0	11011	12	10.036188075151
0	11011	12	10.044236049149
0	11011	12	10.053067339569
0	11011	12	10.058139340802
0	11011	12	10.060162845188
0	11011	12	10.063238022426
0	11011	12	10.066654564096
0	11011	12	10.085067388811
0	11011	12	10.097666726912
0	11011	12	10.108084533454
0	13762	15	11.830697921358
0	13762	15	11.845796155914
0	13762	15	11.84711799301
0	13762	15	11.848943379029
0	13762	15	11.858503043268
0	13762	15	11.86560222254
0	13762	15	11.867375478291
0	13762	15	11.86775830742
0	13762	15	11.888017395591
0	13762	15	11.911519168489
0	13762	15	11.913137869356
0	13762	15	11.931535197207
0	13762	15	11.999189102406
0	13762	15	12.005523728583
0	13762	15	12.018049803832
0	13762	15	12.022393260391
0	13762	15	12.047586081692
0	13762	15	12.048634900048
0	13762	15	12.049691026484
0	13762	15	12.055631761467
0	13762	15	12.06780195642
0	13762	15	12.075502725015
0	13762	15	12.091911700794
0	13762	15	12.094927359926
0	13762	15	12.117176506498
0	13762	15	12.158554604103
0	13762	15	12.164279219617
0	13762	15	12.165302425766
0	13762	15	12.169884154606
0	13762	15	12.171407090859
0	13762	15	12.194093430786
0	13762	15	12.196594245736
0	13762	15	12.202240350747
0	13762	15	12.206111651668
0	13762	15	12.216670147755
0	13762	15	12.251395502548
0	13762	15	12.261985596402
0	13762	15	12.262327630586
0	13762	15	12.270868427942
0	13762	15	12.2788939478
0	13762	15	12.287831238583
0	13762	15	12.292201518721
0	13762	15	12.300640403447
0	13762	15	12.301609630993
0	13762	15	12.305151872315
0	13762	15	12.3062373433
0	13762	15	12.307693083084
0	13762	15	12.328767559134
0	13762	15	12.334367169835
0	13762	15	12.3481969619
0	13762	15	12.357820712458
0	13762	15	12.362657069324
0	13762	15	12.366083065571
0	13762	15	12.369479712897
0	13762	15	12.380272914884
0	13762	15	12.392863350057
0	13762	15	12.396452622216
0	13762	15	12.402803899372
0	13762	15	12.402997697185
0	13762	15	12.409438744268
0	13762	15	12.418762773072
0	13762	15	12.428407308727
0	13762	15	12.433921268628
0	13762	15	12.438944376611
0	16621	18	14.152208625371
0	16621	18	14.16112241114
0	16621	18	14.181094130815
0	16621	18	14.188764927361
0	16621	18	14.200130892314
0	16621	18	14.209649189389
0	16621	18	14.212758867439
0	16621	18	14.239972349998
0	16621	18	14.288763678878
0	16621	18	14.291480359581
0	16621	18	14.303490068646
0	16621	18	14.312099305013
0	16621	18	14.312616134071
0	16621	18	14.322330955652
0	16621	18	14.329262953347
0	16621	18	14.331062526763
0	16621	18	14.346370839026
0	16621	18	14.346694407072
0	16621	18	14.355774047345
0	16621	18	14.367962015378
0	16621	18	14.377333402555
0	16621	18	14.40365559118
0	16621	18	14.432501034064
0	16621	18	14.436737605078
0	16621	18	14.457497915682
0	16621	18	14.460032972733
0	16621	18	14.466258946173
0	16621	18	14.482043073394
0	16621	18	14.483918262906
0	16621	18	14.48410521761
0	16621	18	14.486083512685
0	16621	18	14.488314904766
0	16621	18	14.492454693993
0	16621	18	14.493013394522
0	16621	18	14.49973799969
0	16621	18	14.50709931069
0	16621	18	14.511245436117
0	16621	18	14.513128385869
0	16621	18	14.526991299389
0	16621	18	14.540084283029
0	16621	18	14.56893040055
0	16621	18	14.573392928755
0	16621	18	14.587870869575
0	16621	18	14.587988701894
0	16621	18	14.590611994986
0	16621	18	14.609977767361
0	16621	18	14.610145445021
0	16621	18	14.64724505094
0	16621	18	14.651794169388
0	16621	18	14.67192189675
0	16621	18	14.672441022272
0	16621	18	14.68524436431
0	16621	18	14.690692935591
0	16621	18	14.696735926309
0	16621	18	14.701408651973
0	16621	18	14.713363037636
0	16621	18	14.753861506024
0	16621	18	14.754578259867
0	16621	18	14.754916127723
0	16621	18	14.760144828024
0	16621	18	14.761652738126
0	16621	18	14.770071547743
0	16621	18	14.775371576524
0	16621	18	14.791838767537
0	16621	18	14.811858632492
0	19351	21	16.501306326226
0	19351	21	16.519087759594
0	19351	21	16.523013489876
0	19351	21	16.531888509161
0	19351	21	16.542267009916
0	19351	21	16.547103393791
0	19351	21	16.570581831405
0	19351	21	16.574438708345
0	19351	21	16.59577434122
0	19351	21	16.609978175776
0	19351	21	16.612581689891
0	19351	21	16.612790362077
0	19351	21	16.614266322406
0	19351	21	16.617322371424
0	19351	21	16.641011553132
0	19351	21	16.651890597468
0	19351	21	16.657978926605
0	19351	21	16.660423836825
0	19351	21	16.666763137019
0	19351	21	16.713159662283
0	19351	21	16.725701694984
0	19351	21	16.748400095142
0	19351	21	16.757740698468
0	19351	21	16.765431896479
0	19351	21	16.776735451938
0	19351	21	16.782781264121
0	19351	21	16.78929357144
0	19351	21	16.800668956495
0	19351	21	16.814288273738
0	19351	21	16.814984450449
0	19351	21	16.834268051818
0	19351	21	16.834517935351
0	19351	21	16.84233769256
0	19351	21	16.844317369913
0	19351	21	16.853931765629
0	19351	21	16.858675928532
0	19351	21	16.89614287467
0	19351	21	16.908061455707
0	19351	21	16.929348156652
0	19351	21	16.933084854596
0	19351	21	16.939775991833
0	19351	21	16.945474967486
0	19351	21	16.946055691107
0	19351	21	16.946653500736
0	19351	21	16.947545043636
0	19351	21	16.950480120155
0	19351	21	16.961891499184
0	19351	21	16.964471626823
0	19351	21	16.999616413628
0	19351	21	17.006358859324
0	19351	21	17.012375649189
0	19351	21	17.025829123521
0	19351	21	17.034258911275
0	19351	21	17.063149667194
0	19351	21	17.065618259882
0	19351	21	17.067678580367
0	19351	21	17.070194566498
0	19351	21	17.072549812232
0	19351	21	17.07493734096
0	19351	21	17.080015992187
0	19351	21	17.088095792721
0	19351	21	17.09183465768
0	19351	21	17.125214001019
0	19351	21	17.138311854733
0	21874	24	18.987926545919
0	21874	24	18.989491303623
0	21874	24	18.991783746875
0	21874	24	18.993808334512
0	21874	24	19.012160968541
0	21874	24	19.020494750947
0	21874	24	19.026715120138
0	21874	24	19.031757919471
0	21874	24	19.043947912923
0	21874	24	19.056566039658
0	21874	24	19.058488654066
0	21874	24	19.059905074414
0	21874	24	19.063147065549
0	21874	24	19.070432303976
0	21874	24	19.081666908971
0	21874	24	19.08291723487
0	21874	24	19.096664034408
0	21874	24	19.116604426421
0	21874	24	19.133085188153
0	21874	24	19.141923044713
0	21874	24	19.143986624649
0	21874	24	19.147238784829
0	21874	24	19.149657981277
0	21874	24	19.155886274375
0	21874	24	19.166278330741
0	21874	24	19.170965095501
0	21874	24	19.184074819183
0	21874	24	19.18960320289
0	21874	24	19.191271949302
0	21874	24	19.193597199486
0	21874	24	19.206030707265
0	21874	24	19.206290684717
0	21874	24	19.212672570773
0	21874	24	19.219974847425
0	21874	24	19.251545802839
0	21874	24	19.253945038033
0	21874	24	19.257709331548
0	21874	24	19.260638846133
0	21874	24	19.281866312672
0	21874	24	19.294991392602
0	21874	24	19.297597793896
0	21874	24	19.32704259667
0	21874	24	19.342589226048
0	21874	24	19.345016410985
0	21874	24	19.351621441782
0	21874	24	19.363252574616
0	21874	24	19.369343020743
0	21874	24	19.399874867439
0	21874	24	19.411265443946
0	21874	24	19.413318921633
0	21874	24	19.434976558442
0	21874	24	19.45097375286
0	21874	24	19.45651546115
0	21874	24	19.459711207699
0	21874	24	19.463448840637
0	21874	24	19.484057053046
0	21874	24	19.484057606565
0	21874	24	19.493972649494
0	24433	27	21.360216410883
0	24433	27	21.372788780839
0	24433	27	21.401155182773
0	24433	27	21.407933202794
0	24433	27	21.437755209549
0	24433	27	21.458864097293
0	24433	27	21.461499868421
0	24433	27	21.467572661307
0	24433	27	21.500161871079
0	24433	27	21.502626029301
0	24433	27	21.506753327968
0	24433	27	21.516079446521
0	24433	27	21.536995012247
0	24433	27	21.552485129039
0	24433	27	21.59042536687
0	24433	27	21.599111024185
0	24433	27	21.605759101681
0	24433	27	21.612941566482
0	24433	27	21.613602486589
0	24433	27	21.61560690854
0	24433	27	21.62443571399
0	24433	27	21.636592618724
0	24433	27	21.639901717536
0	24433	27	21.681461428492
0	24433	27	21.696839715637
0	24433	27	21.714739611682
0	24433	27	21.725823709224
0	24433	27	21.725916539468
0	24433	27	21.752442124623
0	24433	27	21.760553534845
0	24433	27	21.760719195789
0	24433	27	21.761370324437
0	24433	27	21.762427196178
0	24433	27	21.77373638097
0	24433	27	21.77649166034
0	24433	27	21.779873207488
0	24433	27	21.783328403325
0	24433	27	21.785674961818
0	24433	27	21.818359925826
0	24433	27	21.818826803262
0	24433	27	21.827608954049
0	24433	27	21.840765216632
0	24433	27	21.848799134259
0	24433	27	21.862632298921
0	24433	27	21.863503384754
0	24433	27	21.86595536568
0	24433	27	21.889360285287
0	24433	27	21.890331962071
0	24433	27	21.904141593028
0	24433	27	21.917885023172
0	24433	27	21.932380570936
0	24433	27	21.932689833852
0	24433	27	21.960896193336
0	24433	27	21.973700436876
0	24433	27	21.978094990781
0	24433	27	21.979428397014
0	24433	27	21.986123802923
0	27148	30	23.613352169721
0	27148	30	23.614941501518
0	27148	30	23.618573923707
0	27148	30	23.633295965287
0	27148	30	23.640920202129
0	27148	30	23.641035134631
0	27148	30	23.641175600543
0	27148	30	23.654107079131
0	27148	30	23.684655676921
0	27148	30	23.685204750647
0	27148	30	23.689139774758
0	27148	30	23.690561029872
0	27148	30	23.716626747895
0	27148	30	23.719269452536
0	27148	30	23.734195774178
0	27148	30	23.739425450715
0	27148	30	23.743018389766
0	27148	30	23.743864184684
0	27148	30	23.748964093022
0	27148	30	23.753015921845
0	27148	30	23.757467415239
0	27148	30	23.772341712782
0	27148	30	23.777641328575
0	27148	30	23.801345204381
0	27148	30	23.816898147985
0	27148	30	23.849297777654
0	27148	30	23.853507710634
0	27148	30	23.889597120684
0	27148	30	23.898018483712
0	27148	30	23.917837387123
0	27148	30	23.923048175334
0	27148	30	23.924077858971
0	27148	30	23.963554191647
0	27148	30	23.966094305431
0	27148	30	23.967380107804
0	27148	30	23.974540560984
0	27148	30	23.97966770741
0	27148	30	23.981773040292
0	27148	30	23.985309006045
0	27148	30	24.002575339842
0	27148	30	24.008165416542
0	27148	30	24.009637666915
0	27148	30	24.014922339198
0	27148	30	24.019520252376
0	27148	30	24.022660231357
0	27148	30	24.032862102237
0	27148	30	24.03290266545
0	27148	30	24.039782100235
0	27148	30	24.053788857205
0	27148	30	24.060296830629
0	27148	30	24.102315424891
0	27148	30	24.14239492144
0	27148	30	24.157555610738
0	27148	30	24.159158951683
0	27148	30	24.178986440729
0	27148	30	24.183251798849
0	27148	30	24.219848372157
0	27148	30	24.219981624605
0	27148	30	24.234824049432
0	27148	30	24.244444168698
0	27148	30	24.246605130864
0	27148	30	24.265506147845
0	27148	30	24.284120464275
0	27148	30	24.287587997313
0	27148	30	24.294482342691
0	27148	30	24.315219957322
0	27148	30	24.327548761952
0	27148	30	24.337503398386
0	27148	30	24.344161823252
0	29839	33	26.108010280732
0	29839	33	26.13393476682
0	29839	33	26.140093959658
0	29839	33	26.15519857567
0	29839	33	26.157393257279
0	29839	33	26.158825787493
0	29839	33	26.163459687768
0	29839	33	26.185720527662
0	29839	33	26.188906366141
0	29839	33	26.189003720234
0	29839	33	26.197861326694
0	29839	33	26.198585517795
0	29839	33	26.203266582327
0	29839	33	26.205231201186
0	29839	33	26.208234451989
0	29839	33	26.219671358195
0	29839	33	26.234695486132
0	29839	33	26.253486670474
0	29839	33	26.26856882279
0	29839	33	26.27088303251
0	29839	33	26.282823166216
0	29839	33	26.293612435301
0	29839	33	26.29419771429
0	29839	33	26.295101086731
0	29839	33	26.310638541751
0	29839	33	26.317758622407
0	29839	33	26.319757177786
0	29839	33	26.337294324236
0	29839	33	26.342073504111
0	29839	33	26.347755208948
0	29839	33	26.351089242332
0	29839	33	26.370237664908
0	29839	33	26.382132627421
0	29839	33	26.387966865131
0	29839	33	26.399464279008
0	29839	33	26.406900110926
0	29839	33	26.412990755479
0	29839	33	26.419125146375
0	29839	33	26.422164861967
0	29839	33	26.428857890687
0	29839	33	26.432447503871
0	29839	33	26.438919250911
0	29839	33	26.439488916236
0	29839	33	26.448452208286
0	29839	33	26.44986188713
0	29839	33	26.452820905862
0	29839	33	26.455972506149
0	29839	33	26.456987846988
0	29839	33	26.469972303344
0	29839	33	26.47473708917
0	29839	33	26.494437664826
0	29839	33	26.512133863058
0	29839	33	26.520284046367
0	29839	33	26.53423273728
0	29839	33	26.539689314428
0	29839	33	26.545348259844
0	29839	33	26.548163500069
0	29839	33	26.564793157876
0	29839	33	26.575942032095
0	29839	33	26.587255819771
0	29839	33	26.588194565244
0	29839	33	26.591079692347
0	29839	33	26.591908315076
0	32542	36	28.551917930907
0	32542	36	28.554662566127
0	32542	36	28.567807787108
0	32542	36	28.577915478739
0	32542	36	28.578189899743
0	32542	36	28.592327733038
0	32542	36	28.604924144744
0	32542	36	28.608894954244
0	32542	36	28.617574654064
0	32542	36	28.629601791902
0	32542	36	28.636011527355
0	32542	36	28.647724164304
0	32542	36	28.653280753436
0	32542	36	28.676719449844
0	32542	36	28.67770064507
0	32542	36	28.682792669939
0	32542	36	28.703759032674
0	32542	36	28.716638652425
0	32542	36	28.732751972416
0	32542	36	28.738888014513
0	32542	36	28.739754184457
0	32542	36	28.761128401361
0	32542	36	28.785268565666
0	32542	36	28.791373394116
0	32542	36	28.792341368839
0	32542	36	28.800189739035
0	32542	36	28.808839120129
0	32542	36	28.83227151943
0	32542	36	28.833657387644
0	32542	36	28.835729239467
0	32542	36	28.837471226633
0	32542	36	28.868799521528
0	32542	36	28.870389641696
0	32542	36	28.875376565025
0	32542	36	28.879317140744
0	32542	36	28.880696673063
0	32542	36	28.888445096858
0	32542	36	28.891696805563
0	32542	36	28.902179696613
0	32542	36	28.913617650404
0	32542	36	28.915170506259
0	32542	36	28.922853039678
0	32542	36	28.924594991282
0	32542	36	28.93172883411
0	32542	36	28.939857817722
0	32542	36	28.94548606974
0	32542	36	28.960794553929
0	32542	36	28.961154582226
0	32542	36	28.967603667138
0	32542	36	28.977976118079
0	32542	36	28.979889078538
0	32542	36	29.011937166834
0	32542	36	29.017291210345
0	32542	36	29.025907885263
0	32542	36	29.032610204029
0	32542	36	29.036274716947
0	32542	36	29.057705713951
0	32542	36	29.065021167342
0	32542	36	29.071360488607
0	32542	36	29.072161277166
0	32542	36	29.078910786903
0	32542	36	29.094994965394
0	32542	36	29.107553900237
0	35278	39	30.861434720354
0	35278	39	30.865390376358
0	35278	39	30.865966305526
0	35278	39	30.872020643342
0	35278	39	30.872986056132
0	35278	39	30.893348998005
0	35278	39	30.894385706371
0	35278	39	30.923444902408
0	35278	39	30.932839922267
0	35278	39	30.93388924974
0	35278	39	30.945292038509
0	35278	39	30.971783921131
0	35278	39	30.979468546905
0	35278	39	30.984597816823
0	35278	39	31.003264221525
0	35278	39	31.005312744196
0	35278	39	31.012902391938
0	35278	39	31.013067024778
0	35278	39	31.018039117641
0	35278	39	31.022450665748
0	35278	39	31.028318353815
0	35278	39	31.032709123671
0	35278	39	31.033984859409
0	35278	39	31.065922478136
0	35278	39	31.069589529674
0	35278	39	31.069928248226
0	35278	39	31.083485433365
0	35278	39	31.102392724909
0	35278	39	31.115401099184
0	35278	39	31.118394383008
0	35278	39	31.124325198981
0	35278	39	31.129842235107
0	35278	39	31.157448279664
0	35278	39	31.158095936592
0	35278	39	31.187913733165
0	35278	39	31.192995927706
0	35278	39	31.203036439445
0	35278	39	31.212949234503
0	35278	39	31.213941449768
0	35278	39	31.2156780154
0	35278	39	31.216566339227
0	35278	39	31.233468688775
0	35278	39	31.282303678678
0	35278	39	31.306255476572
0	35278	39	31.307970862846
0	35278	39	31.325161555964
0	35278	39	31.345040950512
0	35278	39	31.353615301538
0	35278	39	31.363335410449
0	35278	39	31.393674836173
0	35278	39	31.394700355103
0	35278	39	31.400810930716
0	35278	39	31.408971116356
0	35278	39	31.428470885474
0	35278	39	31.459201637702
0	35278	39	31.468141651729
0	35278	39	31.47514190809
0	35278	39	31.481269362539
0	35278	39	31.483920293553
0	35278	39	31.515902843321
0	35278	39	31.519588672717
0	35278	39	31.535504233945
0	35278	39	31.535602378309
0	35278	39	31.537352328791
0	38122	42	33.285287831075
0	38122	42	33.302579027452
0	38122	42	33.305962488639
0	38122	42	33.311545756532
0	38122	42	33.319635553483
0	38122	42	33.326520692363
0	38122	42	33.332038713579
0	38122	42	33.351276099286
0	38122	42	33.358559875016
0	38122	42	33.38471628434
0	38122	42	33.39567820995
0	38122	42	33.405727543041
0	38122	42	33.408552010161
0	38122	42	33.413344137106
0	38122	42	33.424206170218
0	38122	42	33.435712796147
0	38122	42	33.438475848076
0	38122	42	33.439206364648
0	38122	42	33.442608736844
0	38122	42	33.458795347508
0	38122	42	33.474084736215
0	38122	42	33.477835355646
0	38122	42	33.478510697215
0	38122	42	33.48310097649
0	38122	42	33.528579215009
0	38122	42	33.538796398483
0	38122	42	33.545535832925
0	38122	42	33.561987667196
0	38122	42	33.572169842984
0	38122	42	33.589979189733
0	38122	42	33.591757957312
0	38122	42	33.59546957452
0	38122	42	33.600729882478
0	38122	42	33.601197231495
0	38122	42	33.647600031454
0	38122	42	33.652289244727
0	38122	42	33.688884865912
0	38122	42	33.691690625174
0	38122	42	33.701326552137
0	38122	42	33.741302186904
0	38122	42	33.742529336977
0	38122	42	33.749282895679
0	38122	42	33.74940398813
0	38122	42	33.754123669008
0	38122	42	33.755528426178
0	38122	42	33.770272648426
0	38122	42	33.773192109143
0	38122	42	33.781870727842
0	38122	42	33.784370236008
0	38122	42	33.784700275859
0	38122	42	33.78760301001
0	38122	42	33.795468600929
0	38122	42	33.796173620413
0	38122	42	33.806667042072
0	38122	42	33.812267125805
0	38122	42	33.819463574782
0	38122	42	33.81962086602
0	38122	42	33.827010066219
0	38122	42	33.827346405428
0	38122	42	33.845641826987
0	38122	42	33.85517305237
0	38122	42	33.857880296277
0	38122	42	33.860529645653
0	40729	45	35.576409434098
0	40729	45	35.589818451344
0	40729	45	35.592533151008
0	40729	45	35.596869799562
0	40729	45	35.61514506224
0	40729	45	35.636857321054
0	40729	45	35.640488109456
0	40729	45	35.644001322271
0	40729	45	35.64996682144
0	40729	45	35.656977276533
0	40729	45	35.658862923776
0	40729	45	35.674736496073
0	40729	45	35.67745205399
0	40729	45	35.688850008057
0	40729	45	35.702664598855
0	40729	45	35.706586211751
0	40729	45	35.711274993307
0	40729	45	35.715962950223
0	40729	45	35.720728108433
0	40729	45	35.72215313789
0	40729	45	35.725333683342
0	40729	45	35.735306672584
0	40729	45	35.756653696529
0	40729	45	35.757862010492
0	40729	45	35.770981641303
0	40729	45	35.795837952146
0	40729	45	35.796439235837
0	40729	45	35.801304427235
0	40729	45	35.813008784535
0	40729	45	35.817442128495
0	40729	45	35.820100293985
0	40729	45	35.842312435817
0	40729	45	35.872462118539
0	40729	45	35.879185947559
0	40729	45	35.88030539297
0	40729	45	35.882896515529
0	40729	45	35.885765606483
0	40729	45	35.888530333648
0	40729	45	35.936827536128
0	40729	45	35.93811792116
0	40729	45	35.941635595014
0	40729	45	35.964372666681
0	40729	45	35.987906014362
0	40729	45	35.999850913797
0	40729	45	36.034579470856
0	40729	45	36.039388253099
0	40729	45	36.081718411062
0	40729	45	36.084692146341
0	40729	45	36.101564329229
0	40729	45	36.129255774057
0	40729	45	36.133540850099
0	40729	45	36.139502569013
0	40729	45	36.142150391746
0	40729	45	36.155570589158
0	40729	45	36.156041581869
0	40729	45	36.161108814008
0	40729	45	36.187007075463
0	40729	45	36.191519463448
0	40729	45	36.20916033737
0	40729	45	36.243866788175
0	40729	45	36.248338187201
0	40729	45	36.25426476138
0	40729	45	36.259623749333
0	40729	45	36.273026508953
0	43354	48	37.9197097205
0	43354	48	37.941606187646
0	43354	48	37.944461876851
0	43354	48	37.944720157295
0	43354	48	37.949857013428
0	43354	48	37.984947648938
0	43354	48	37.991025496579
0	43354	48	37.994213907063
0	43354	48	37.997383680862
0	43354	48	38.034577763971
0	43354	48	38.04260913169
0	43354	48	38.051282051878
0	43354	48	38.056503164922
0	43354	48	38.058930619296
0	43354	48	38.08163772037
0	43354	48	38.084631250399
0	43354	48	38.09360178054
0	43354	48	38.095209080946
0	43354	48	38.098422483975
0	43354	48	38.137331584879
0	43354	48	38.145247675825
0	43354	48	38.145442568755
0	43354	48	38.17979880268
0	43354	48	38.180550720772
0	43354	48	38.20312548868
0	43354	48	38.235378649517
0	43354	48	38.240204401669
0	43354	48	38.241258362968
0	43354	48	38.250524748971
0	43354	48	38.255278145667
0	43354	48	38.256685597221
0	43354	48	38.268595411755
0	43354	48	38.273999438731
0	43354	48	38.279932744414
0	43354	48	38.281585674537
0	43354	48	38.292730256854
0	43354	48	38.296194590129
0	43354	48	38.305655607542
0	43354	48	38.306390671316
0	43354	48	38.318737470077
0	43354	48	38.324749016541
0	43354	48	38.337056205051
0	43354	48	38.388907499281
0	43354	48	38.390321430408
0	43354	48	38.424730870884
0	43354	48	38.426342296672
0	43354	48	38.438367870119
0	43354	48	38.438617151076
0	43354	48	38.452510736145
0	43354	48	38.456799854503
0	43354	48	38.484968971803
0	43354	48	38.49230122519
0	43354	48	38.512497070222
0	43354	48	38.520449292235
0	43354	48	38.530500448721
0	43354	48	38.53275087366
0	43354	48	38.561325127138
0	43354	48	38.56943005861
0	46132	51	40.414897917026
0	46132	51	40.415146249103
0	46132	51	40.419809219367
0	46132	51	40.425975150252
0	46132	51	40.426054303717
0	46132	51	40.429615961533
0	46132	51	40.442006326607
0	46132	51	40.452086462012
0	46132	51	40.452393479742
0	46132	51	40.471793961841
0	46132	51	40.475116568077
0	46132	51	40.476721409151
0	46132	51	40.48456697612
0	46132	51	40.487750906281
0	46132	51	40.508889974427
0	46132	51	40.516838702788
0	46132	51	40.528116307124
0	46132	51	40.538305838935
0	46132	51	40.542486755524
0	46132	51	40.553791327507
0	46132	51	40.556084499223
0	46132	51	40.578420897734
0	46132	51	40.59081787854
0	46132	51	40.61976905471
0	46132	51	40.629507840625
0	46132	51	40.637059958803
0	46132	51	40.648470392146
0	46132	51	40.653361476252
0	46132	51	40.666835964489
0	46132	51	40.673982306363
0	46132	51	40.678266716651
0	46132	51	40.685450375003
0	46132	51	40.686555533769
0	46132	51	40.708558826973
0	46132	51	40.714467179177
0	46132	51	40.718470994492
0	46132	51	40.721396500504
0	46132	51	40.74457176113
0	46132	51	40.745070917154
0	46132	51	40.746917075883
0	46132	51	40.766745201686
0	46132	51	40.80089445071
0	46132	51	40.826685582018
0	46132	51	40.830683534743
0	46132	51	40.834740798182
0	46132	51	40.844566081609
0	46132	51	40.858452854348
0	46132	51	40.858721660543
0	46132	51	40.866165443157
0	46132	51	40.888690371858
0	46132	51	40.893359015294
0	46132	51	40.896613182466
0	46132	51	40.900329340014
0	46132	51	40.912660227286
0	48883	54	42.823643246162
0	48883	54	42.828473776405
0	48883	54	42.835812476075
0	48883	54	42.883076428044
0	48883	54	42.888911029767
0	48883	54	42.896729873998
0	48883	54	42.897752891808
0	48883	54	42.922951778746
0	48883	54	42.938598344253
0	48883	54	42.938893662365
0	48883	54	42.942957791032
0	48883	54	42.95341604396
0	48883	54	42.960545608751
0	48883	54	42.972100356038
0	48883	54	42.988903180039
0	48883	54	42.994713266594
0	48883	54	43.006636424336
0	48883	54	43.017641109641
0	48883	54	43.017811265878
0	48883	54	43.042437708572
0	48883	54	43.075344196875
0	48883	54	43.093290928015
0	48883	54	43.102176215138
0	48883	54	43.137961232396
0	48883	54	43.147133950365