version 2
run General-2-20200907-17:18:48-13040
attr configname General
attr datetime 20200907-17:18:48
attr experiment General
attr inifile FairNetworkConf.ini
attr iterationvars "$nUser=3, $0=1"
attr iterationvarsf nUser=3,1-
attr measurement "$nUser=3, $0=1"
attr network FairNetwork
attr processid 13040
attr repetition 2
attr replication #2
attr resultdir results
attr runnumber 2
attr seedset 2
itervar nUser 3
param **.NUM_USER 3
param **.TIMESLOT 1000ms
param **.packetGenerator.senders[*].lambda 1

vector 0 FairNetwork.user[0] packetDelayStat:vector ETV
attr "" ""
attr source packetDelay
attr title "Packet delay, vector"
vector 1 FairNetwork.user[0] packetBytesStat:vector ETV
attr "" ""
attr source packetBytes
attr title "Packet bytes, vector"
vector 2 FairNetwork.user[0] userThroughputStat:vector ETV
attr "" ""
attr source userThroughput
attr title "User throughput, vector"
vector 3 FairNetwork.user[1] packetDelayStat:vector ETV
attr "" ""
attr source packetDelay
attr title "Packet delay, vector"
vector 4 FairNetwork.user[1] packetBytesStat:vector ETV
attr "" ""
attr source packetBytes
attr title "Packet bytes, vector"
vector 5 FairNetwork.user[1] userThroughputStat:vector ETV
attr "" ""
attr source userThroughput
attr title "User throughput, vector"
vector 6 FairNetwork.user[2] userThroughputStat:vector ETV
attr "" ""
attr source userThroughput
attr title "User throughput, vector"
vector 7 FairNetwork.user[2] packetDelayStat:vector ETV
attr "" ""
attr source packetDelay
attr title "Packet delay, vector"
vector 8 FairNetwork.user[2] packetBytesStat:vector ETV
attr "" ""
attr source packetBytes
attr title "Packet bytes, vector"
0	14	1	0.172811361456
0	81	5	0.778330452098
0	81	5	0.815532527805
0	81	5	0.915643257121
0	103	6	0.596699475822
0	125	7	0.37608875865
0	125	7	0.651557851169
0	154	9	0.841812111267
0	186	11	0.178713575886
0	222	14	0.136115750954
0	222	14	0.813317864552
0	241	15	0.105011520289
0	266	16	0.515609602631
0	266	16	0.57401273841
0	266	16	0.611370610477
0	299	19	0.936838611064
0	315	20	0.415481500048
0	370	24	0.328343314652
0	386	25	0.350012541055
0	399	26	0.212484225681
0	399	26	0.65429552207
0	412	27	0.700483371188
0	435	29	0.247683319066
0	435	29	0.553837524547
0	435	29	0.813687300829
0	464	31	0.844302316724
0	486	32	0.176502915636
0	486	32	0.298058272783
0	486	32	0.314743348502
0	486	32	0.629373164072
0	502	33	0.08238519595
0	502	33	0.971183700955
0	524	34	0.64499164165
0	524	34	0.854332476727
0	540	35	0.401572444318
0	540	35	0.485816346587
0	559	36	0.87785530757
0	584	37	0.064811124539
0	584	37	0.345093897298
0	622	39	0.130473256628
0	622	39	0.686058715429
0	635	40	0.956642268547
0	657	41	0.289100244261
0	657	41	0.416530687613
0	673	42	0.527504042556
0	692	43	0.308166723422
0	692	43	0.540462019003
0	708	44	0.81199960177
0	708	44	0.938857709085
0	727	45	0.224240599943
0	743	46	0.129357265865
0	743	46	0.835549206143
0	759	47	0.606890776581
0	759	47	0.854038176166
0	791	49	0.789270232297
0	810	50	0.448591965809
0	810	50	0.742843261288
0	845	52	0.032423677563
0	874	54	0.113546981046
0	916	57	0.25268084752
0	941	58	0.139290541789
0	941	58	0.543325503474
0	957	59	0.796508703714
0	973	60	0.692682012896
0	992	61	0.167645401657
0	992	61	0.691813432665
0	992	61	0.752864894813
0	1011	62	0.063448958234
0	1030	63	0.149649390465
0	1046	64	0.31363610968
0	1046	64	0.990787773127
0	1069	66	0.913882597281
0	1082	67	0.102006586675
0	1104	68	0.181696940562
0	1104	68	0.425934198193
0	1117	69	0.299565604218
0	1117	69	0.752203704531
0	1133	70	0.47710300698
0	1149	71	0.175394139627
0	1149	71	0.865542692695
0	1165	72	0.637293025142
0	1165	72	0.63802617345
0	1187	73	0.149109338369
0	1229	76	0.105143520374
0	1268	79	0.411638557626
0	1290	80	0.737213567002
0	1300	81	0.529728447113
0	1313	82	0.787715716155
0	1313	82	0.940247010417
0	1326	83	0.521765278284
0	1349	85	0.538009613826
0	1362	86	0.385138556408
0	1362	86	0.467558108244
0	1381	87	0.448359542308
0	1403	88	0.026553151661
0	1419	89	0.046556880437
0	1438	90	0.49668712574
0	1438	90	0.698081836181
0	1460	91	0.016113077093
0	1460	91	0.36263979557
0	1460	91	0.751944902539
0	1482	92	0.329697777325
0	1482	92	0.804784825471
0	1508	94	0.113909861508
0	1562	97	0.505027003577
0	1584	98	0.263012306718
0	1584	98	0.302959934311
0	1609	99	0.603983810569
0	1609	99	0.818083570604
0	1625	100	0.361463478511
0	1625	100	0.652634845271
1	14	1	38
1	81	5	45
1	81	5	6
1	81	5	2
1	103	6	24
1	125	7	51
1	125	7	13
1	154	9	64
1	186	11	36
1	222	14	20
1	222	14	32
1	241	15	60
1	266	16	29
1	266	16	72
1	266	16	25
1	299	19	39
1	315	20	60
1	370	24	8
1	386	25	20
1	399	26	51
1	399	26	15
1	412	27	54
1	435	29	68
1	435	29	22
1	435	29	20
1	464	31	34
1	486	32	33
1	486	32	2
1	486	32	47
1	486	32	65
1	502	33	18
1	502	33	74
1	524	34	57
1	524	34	63
1	540	35	72
1	540	35	57
1	559	36	43
1	584	37	14
1	584	37	68
1	622	39	48
1	622	39	67
1	635	40	67
1	657	41	49
1	657	41	6
1	673	42	47
1	692	43	47
1	692	43	57
1	708	44	24
1	708	44	5
1	727	45	69
1	743	46	62
1	743	46	9
1	759	47	23
1	759	47	66
1	791	49	20
1	810	50	39
1	810	50	49
1	845	52	49
1	874	54	3
1	916	57	40
1	941	58	16
1	941	58	55
1	957	59	70
1	973	60	67
1	992	61	70
1	992	61	43
1	992	61	12
1	1011	62	8
1	1030	63	61
1	1046	64	33
1	1046	64	32
1	1069	66	1
1	1082	67	67
1	1104	68	15
1	1104	68	43
1	1117	69	66
1	1117	69	3
1	1133	70	19
1	1149	71	57
1	1149	71	7
1	1165	72	13
1	1165	72	57
1	1187	73	61
1	1229	76	52
1	1268	79	41
1	1290	80	26
1	1300	81	25
1	1313	82	67
1	1313	82	64
1	1326	83	73
1	1349	85	23
1	1362	86	22
1	1362	86	10
1	1381	87	32
1	1403	88	18
1	1419	89	7
1	1438	90	58
1	1438	90	74
1	1460	91	8
1	1460	91	25
1	1460	91	41
1	1482	92	4
1	1482	92	67
1	1508	94	71
1	1562	97	7
1	1584	98	61
1	1584	98	24
1	1609	99	57
1	1609	99	47
1	1625	100	32
1	1625	100	69
2	14	1	38
2	24	2	0
2	40	3	0
2	53	4	0
2	81	5	53
2	103	6	24
2	125	7	64
2	144	8	0
2	154	9	64
2	164	10	0
2	186	11	36
2	196	12	0
2	203	13	0
2	222	14	52
2	241	15	60
2	266	16	126
2	273	17	0
2	283	18	0
2	299	19	39
2	315	20	60
2	322	21	0
2	338	22	0
2	351	23	0
2	370	24	8
2	386	25	20
2	399	26	66
2	412	27	54
2	419	28	0
2	435	29	110
2	445	30	0
2	464	31	34
2	486	32	147
2	502	33	92
2	524	34	120
2	540	35	129
2	559	36	43
2	584	37	82
2	594	38	0
2	622	39	115
2	635	40	67
2	657	41	55
2	673	42	47
2	692	43	104
2	708	44	29
2	727	45	69
2	743	46	71
2	759	47	89
2	769	48	0
2	791	49	20
2	810	50	88
2	829	51	0
2	845	52	49
2	861	53	0
2	874	54	3
2	884	55	0
2	897	56	0
2	916	57	40
2	941	58	71
2	957	59	70
2	973	60	67
2	992	61	125
2	1011	62	8
2	1030	63	61
2	1046	64	65
2	1059	65	0
2	1069	66	1
2	1082	67	67
2	1104	68	58
2	1117	69	69
2	1133	70	19
2	1149	71	64
2	1165	72	70
2	1187	73	61
2	1200	74	0
2	1213	75	0
2	1229	76	52
2	1239	77	0
2	1255	78	0
2	1268	79	41
2	1290	80	26
2	1300	81	25
2	1313	82	131
2	1326	83	73
2	1333	84	0
2	1349	85	23
2	1362	86	32
2	1381	87	32
2	1403	88	18
2	1419	89	7
2	1438	90	132
2	1460	91	74
2	1482	92	71
2	1498	93	0
2	1508	94	71
2	1527	95	0
2	1546	96	0
2	1562	97	7
2	1584	98	85
2	1609	99	104
2	1625	100	101
3	15	1	0.083525740288
3	15	1	0.257614013279
3	25	2	0.962386321182
3	54	4	0.574296948348
3	82	5	0.024446008249
3	82	5	0.729006904025
3	104	6	0.140260929864
3	104	6	0.149498934262
3	104	6	0.350555850143
3	104	6	0.503846890302
3	126	7	0.969785422048
3	145	8	0.060458737883
3	145	8	0.464206690366
3	145	8	0.511695847225
3	145	8	0.896064570524
3	165	10	0.699799310261
3	187	11	0.450218622815
3	223	14	0.452773009927
3	242	15	0.192130196794
3	242	15	0.24136740388
3	267	16	0.509866016213
3	267	16	0.7272073097
3	284	18	0.683601058357
3	300	19	0.801747156585
3	339	22	0.787406485381
3	371	24	0.572931001635
3	371	24	0.848200402823
3	387	25	0.344666337086
3	413	27	0.286791277178
3	446	30	0.409189207524
3	465	31	0.688901211408
3	465	31	0.747436758737
3	525	34	0.384932961659
3	560	36	0.374769284485
3	585	37	0.342359712088
3	585	37	0.841542027479
3	595	38	0.999155723907
3	623	39	0.268779891352
3	623	39	0.681373615952
3	636	40	0.241612819753
3	658	41	0.252903660881
3	674	42	0.719189068621
3	674	42	0.785244276101
3	693	43	0.422393219054
3	693	43	0.435765606466
3	709	44	0.344571939411
3	728	45	0.520720441122
3	728	45	0.805799016383
3	792	49	0.07363539769
3	811	50	0.991294099795
3	830	51	0.75251307346
3	846	52	0.278738686647
3	862	53	0.605560991485
3	875	54	0.705327313206
3	885	55	0.67420173201
3	898	56	0.280847233663
3	898	56	0.605438869377
3	917	57	0.250897455692
3	917	57	0.824459852663
3	942	58	0.601397753448
3	942	58	0.692515482669
3	942	58	0.713060141733
3	958	59	0.23522521466
3	974	60	0.793709094054
3	993	61	0.069786502826
3	1012	62	0.582358277556
3	1012	62	0.850941782368
3	1031	63	0.910776000587
3	1060	65	0.050194333604
3	1060	65	0.795370585584
3	1105	68	0.393475741577
3	1105	68	0.451035420369
3	1105	68	0.621135693586
3	1134	70	0.033623004745
3	1150	71	0.3480530187
3	1166	72	0.835181288452
3	1188	73	0.146745454579
3	1188	73	0.736364507704
3	1201	74	0.110591185368
3	1201	74	0.158379952496
3	1214	75	0.76674655024
3	1230	76	0.261952869889
3	1256	78	0.426971441779
3	1256	78	0.507671555639
3	1291	80	0.670951901427
3	1291	80	0.682548179474
3	1291	80	0.929638001586
3	1350	85	0.511182269523
3	1404	88	0.195871413707
3	1404	88	0.933642422755
3	1420	89	0.152144927042
3	1439	90	0.924798665979
3	1483	92	0.405335001561
3	1483	92	0.532632424023
3	1483	92	0.752093548515
3	1499	93	0.679284115359
3	1528	95	0.69439858522
3	1547	96	0.049704534357
3	1547	96	0.357742889784
3	1547	96	0.640526175337
3	1563	97	0.586199902211
3	1585	98	0.347303157723
3	1585	98	0.376899993317
3	1585	98	0.967386625763
3	1610	99	0.051278322121
3	1610	99	0.162519277002
3	1610	99	0.917326971838
3	1626	100	0.128596525301
4	15	1	53
4	15	1	47
4	25	2	17
4	54	4	56
4	82	5	24
4	82	5	36
4	104	6	5
4	104	6	10
4	104	6	25
4	104	6	42
4	126	7	55
4	145	8	20
4	145	8	66
4	145	8	6
4	145	8	25
4	165	10	29
4	187	11	14
4	223	14	64
4	242	15	65
4	242	15	15
4	267	16	57
4	267	16	45
4	284	18	54
4	300	19	13
4	339	22	10
4	371	24	23
4	371	24	5
4	387	25	4
4	413	27	73
4	446	30	24
4	465	31	36
4	465	31	36
4	525	34	66
4	560	36	75
4	585	37	73
4	585	37	56
4	595	38	1
4	623	39	66
4	623	39	46
4	636	40	38
4	658	41	63
4	674	42	10
4	674	42	11
4	693	43	74
4	693	43	39
4	709	44	69
4	728	45	74
4	728	45	7
4	792	49	26
4	811	50	29
4	830	51	4
4	846	52	3
4	862	53	13
4	875	54	54
4	885	55	23
4	898	56	27
4	898	56	31
4	917	57	58
4	917	57	31
4	942	58	73
4	942	58	58
4	942	58	18
4	958	59	63
4	974	60	22
4	993	61	65
4	1012	62	1
4	1012	62	4
4	1031	63	62
4	1060	65	20
4	1060	65	8
4	1105	68	21
4	1105	68	47
4	1105	68	57
4	1134	70	53
4	1150	71	47
4	1166	72	53
4	1188	73	74
4	1188	73	4
4	1201	74	17
4	1201	74	44
4	1214	75	41
4	1230	76	57
4	1256	78	3
4	1256	78	70
4	1291	80	54
4	1291	80	45
4	1291	80	33
4	1350	85	16
4	1404	88	75
4	1404	88	32
4	1420	89	19
4	1439	90	45
4	1483	92	5
4	1483	92	12
4	1483	92	73
4	1499	93	12
4	1528	95	10
4	1547	96	66
4	1547	96	7
4	1547	96	66
4	1563	97	46
4	1585	98	18
4	1585	98	48
4	1585	98	50
4	1610	99	5
4	1610	99	28
4	1610	99	29
4	1626	100	2
5	15	1	100
5	25	2	17
5	41	3	0
5	54	4	56
5	82	5	60
5	104	6	82
5	126	7	55
5	145	8	117
5	155	9	0
5	165	10	29
5	187	11	14
5	197	12	0
5	204	13	0
5	223	14	64
5	242	15	80
5	267	16	102
5	274	17	0
5	284	18	54
5	300	19	13
5	316	20	0
5	323	21	0
5	339	22	10
5	352	23	0
5	371	24	28
5	387	25	4
5	400	26	0
5	413	27	73
5	420	28	0
5	436	29	0
5	446	30	24
5	465	31	72
5	487	32	0
5	503	33	0
5	525	34	66
5	541	35	0
5	560	36	75
5	585	37	129
5	595	38	1
5	623	39	112
5	636	40	38
5	658	41	63
5	674	42	21
5	693	43	113
5	709	44	69
5	728	45	81
5	744	46	0
5	760	47	0
5	770	48	0
5	792	49	26
5	811	50	29
5	830	51	4
5	846	52	3
5	862	53	13
5	875	54	54
5	885	55	23
5	898	56	58
5	917	57	89
5	942	58	149
5	958	59	63
5	974	60	22
5	993	61	65
5	1012	62	5
5	1031	63	62
5	1047	64	0
5	1060	65	28
5	1070	66	0
5	1083	67	0
5	1105	68	125
5	1118	69	0
5	1134	70	53
5	1150	71	47
5	1166	72	53
5	1188	73	78
5	1201	74	61
5	1214	75	41
5	1230	76	57
5	1240	77	0
5	1256	78	73
5	1269	79	0
5	1291	80	132
5	1301	81	0
5	1314	82	0
5	1327	83	0
5	1334	84	0
5	1350	85	16
5	1363	86	0
5	1382	87	0
5	1404	88	107
5	1420	89	19
5	1439	90	45
5	1461	91	0
5	1483	92	90
5	1499	93	12
5	1509	94	0
5	1528	95	10
5	1547	96	139
5	1563	97	46
5	1585	98	116
5	1610	99	62
5	1626	100	2
6	16	1	0
6	26	2	0
6	42	3	69
6	55	4	63
6	83	5	123
6	105	6	0
6	127	7	24
6	146	8	0
6	156	9	0
6	166	10	0
6	188	11	137
6	198	12	15
6	205	13	0
6	224	14	6
6	243	15	24
6	268	16	4
6	275	17	0
6	285	18	0
6	301	19	20
6	317	20	24
6	324	21	0
6	340	22	44
6	353	23	76
6	372	24	21
6	388	25	55
6	401	26	0
6	414	27	0
6	421	28	0
6	437	29	0
6	447	30	0
6	466	31	50
6	488	32	38
6	504	33	58
6	526	34	44
6	542	35	60
6	561	36	99
6	586	37	68
6	596	38	0
6	624	39	134
6	637	40	0
6	659	41	48
6	675	42	0
6	694	43	0
6	710	44	0
6	729	45	72
6	745	46	35
6	761	47	46
6	771	48	60
6	793	49	53
6	812	50	72
6	831	51	88
6	847	52	29
6	863	53	40
6	876	54	0
6	886	55	0
6	899	56	0
6	918	57	56
6	943	58	23
6	959	59	43
6	975	60	64
6	994	61	0
6	1013	62	14
6	1032	63	73
6	1048	64	33
6	1061	65	0
6	1071	66	0
6	1084	67	3
6	1106	68	0
6	1119	69	0
6	1135	70	6
6	1151	71	0
6	1167	72	0
6	1189	73	39
6	1202	74	0
6	1215	75	21
6	1231	76	20
6	1241	77	36
6	1257	78	4
6	1270	79	61
6	1292	80	20
6	1302	81	0
6	1315	82	0
6	1328	83	6
6	1335	84	0
6	1351	85	3
6	1364	86	0
6	1383	87	104
6	1405	88	63
6	1421	89	75
6	1440	90	43
6	1462	91	39
6	1484	92	0
6	1500	93	93
6	1510	94	0
6	1529	95	107
6	1548	96	53
6	1564	97	59
6	1586	98	0
6	1611	99	47
6	1627	100	0
7	42	3	0.252036415409
7	42	3	0.316962711872
7	42	3	0.907941606506
7	55	4	0.077961351672
7	83	5	0.385150281703
7	83	5	0.950206014414
7	127	7	0.266747886408
7	127	7	0.835966575604
7	188	11	0.05908606949
7	188	11	0.37638139399
7	188	11	0.47681040048
7	198	12	0.448032083169
7	224	14	0.373977216268
7	243	15	0.438067069217
7	268	16	0.824072636931
7	301	19	0.360940039969
7	317	20	0.264838429389
7	317	20	0.342621748163
7	340	22	0.172980919356
7	340	22	0.742799472884
7	353	23	0.05868571525
7	353	23	0.172201139339
7	372	24	0.922880571145
7	388	25	0.968565761379
7	466	31	0.963457421251
7	488	32	0.396159239613
7	504	33	0.410381339689
7	526	34	0.39718347793
7	526	34	0.444283900457
7	542	35	0.861028930282
7	561	36	0.384971469118
7	561	36	0.891337162176
7	586	37	0.218225502008
7	586	37	0.975397235318
7	624	39	0.381575504234
7	624	39	0.497941668081
7	624	39	0.779325944134
7	659	41	0.205834269576
7	659	41	0.933765775838
7	729	45	0.187352862708
7	745	46	0.199389418547
7	761	47	0.861540299138
7	771	48	0.007713253034
7	793	49	0.078212591646
7	793	49	0.750794937001
7	793	49	0.871388976127
7	812	50	0.732330316083
7	831	51	0.574770866403
7	831	51	0.859887967028
7	831	51	0.936035312933
7	847	52	0.474198863165
7	863	53	0.167061334111
7	863	53	0.422683392932
7	918	57	0.598198923748
7	943	58	0.866802333296
7	959	59	0.396347186509
7	975	60	0.509479825632
7	1013	62	0.168597009975
7	1032	63	0.377860183612
7	1032	63	0.567386367904
7	1048	64	0.065606254182
7	1084	67	0.522601694732
7	1135	70	0.117633931434
7	1189	73	0.709457185626
7	1189	73	0.928043719549
7	1215	75	0.308407534856
7	1231	76	0.020585108799
7	1241	77	0.764532188015
7	1257	78	0.22451871263
7	1270	79	0.778007342228
7	1292	80	0.990203722817
7	1328	83	0.669988449337
7	1351	85	0.880341380518
7	1383	87	0.376130363491
7	1383	87	0.423882359917
7	1383	87	0.448342151989
7	1405	88	0.329608263923
7	1405	88	0.508536055261
7	1421	89	0.471431258862
7	1440	90	0.681666875141
7	1462	91	0.368863106382
7	1462	91	0.881261312315
7	1500	93	0.13468462968
7	1500	93	0.23198279662
7	1529	95	0.191846644529
7	1529	95	0.589701406498
7	1529	95	0.630952673302
7	1548	96	0.896037031898
7	1564	97	0.531069448337
7	1611	99	0.435337543627
8	42	3	2
8	42	3	66
8	42	3	1
8	55	4	63
8	83	5	71
8	83	5	52
8	127	7	5
8	127	7	19
8	188	11	66
8	188	11	22
8	188	11	49
8	198	12	15
8	224	14	6
8	243	15	24
8	268	16	4
8	301	19	20
8	317	20	15
8	317	20	9
8	340	22	39
8	340	22	5
8	353	23	73
8	353	23	3
8	372	24	21
8	388	25	55
8	466	31	50
8	488	32	38
8	504	33	58
8	526	34	33
8	526	34	11
8	542	35	60
8	561	36	53
8	561	36	46
8	586	37	40
8	586	37	28
8	624	39	32
8	624	39	46
8	624	39	56
8	659	41	1
8	659	41	47
8	729	45	72
8	745	46	35
8	761	47	46
8	771	48	60
8	793	49	4
8	793	49	37
8	793	49	12
8	812	50	72
8	831	51	23
8	831	51	4
8	831	51	61
8	847	52	29
8	863	53	29
8	863	53	11
8	918	57	56
8	943	58	23
8	959	59	43
8	975	60	64
8	1013	62	14
8	1032	63	6
8	1032	63	67
8	1048	64	33
8	1084	67	3
8	1135	70	6
8	1189	73	28
8	1189	73	11
8	1215	75	21
8	1231	76	20
8	1241	77	36
8	1257	78	4
8	1270	79	61
8	1292	80	20
8	1328	83	6
8	1351	85	3
8	1383	87	22
8	1383	87	38
8	1383	87	44
8	1405	88	3
8	1405	88	60
8	1421	89	75
8	1440	90	43
8	1462	91	18
8	1462	91	21
8	1500	93	69
8	1500	93	24
8	1529	95	61
8	1529	95	39
8	1529	95	7
8	1548	96	53
8	1564	97	59
8	1611	99	47

