version 2
run General-4-20200907-17:19:01-13040
attr configname General
attr datetime 20200907-17:19:01
attr experiment General
attr inifile FairNetworkConf.ini
attr iterationvars "$nUser=3, $0=1"
attr iterationvarsf nUser=3,1-
attr measurement "$nUser=3, $0=1"
attr network FairNetwork
attr processid 13040
attr repetition 4
attr replication #4
attr resultdir results
attr runnumber 4
attr seedset 4
itervar nUser 3
param **.NUM_USER 3
param **.TIMESLOT 1000ms
param **.packetGenerator.senders[*].lambda 1

vector 0 FairNetwork.user[0] packetDelayStat:vector ETV
attr "" ""
attr source packetDelay
attr title "Packet delay, vector"
vector 1 FairNetwork.user[0] packetBytesStat:vector ETV
attr "" ""
attr source packetBytes
attr title "Packet bytes, vector"
vector 2 FairNetwork.user[0] userThroughputStat:vector ETV
attr "" ""
attr source userThroughput
attr title "User throughput, vector"
vector 3 FairNetwork.user[1] packetDelayStat:vector ETV
attr "" ""
attr source packetDelay
attr title "Packet delay, vector"
vector 4 FairNetwork.user[1] packetBytesStat:vector ETV
attr "" ""
attr source packetBytes
attr title "Packet bytes, vector"
vector 5 FairNetwork.user[1] userThroughputStat:vector ETV
attr "" ""
attr source userThroughput
attr title "User throughput, vector"
vector 6 FairNetwork.user[2] packetDelayStat:vector ETV
attr "" ""
attr source packetDelay
attr title "Packet delay, vector"
vector 7 FairNetwork.user[2] packetBytesStat:vector ETV
attr "" ""
attr source packetBytes
attr title "Packet bytes, vector"
vector 8 FairNetwork.user[2] userThroughputStat:vector ETV
attr "" ""
attr source userThroughput
attr title "User throughput, vector"
0	17	1	0.311286591405
0	30	2	0.281735665531
0	66	5	0.376218806753
0	66	5	0.442573644275
0	85	6	0.015589086655
0	85	6	0.571794990039
0	85	6	0.914973036488
0	101	7	0.427267078365
0	142	9	0.571973718594
0	142	9	0.587862555601
0	142	9	0.818770707363
0	164	10	0.027842795647
0	205	12	0.404425844551
0	205	12	0.638613831453
0	205	12	0.979532712683
0	231	14	0.040615249738
0	265	15	0.041599041987
0	281	16	0.349368969608
0	281	16	0.356484311936
0	281	16	0.422182709516
0	297	17	0.500644431474
0	310	18	0.993719913789
0	351	20	0.32012504533
0	351	20	0.477684764951
0	351	20	0.624807252214
0	351	20	0.758860666565
0	373	21	0.084482072504
0	373	21	0.196995301096
0	373	21	0.248804002889
0	373	21	0.90354744215
0	389	22	0.016866849281
0	389	22	0.323950457528
0	408	23	0.092183421345
0	408	23	0.379708437026
0	430	24	0.979135140188
0	440	25	0.375537896945
0	459	26	0.090244756364
0	500	28	0.205316814105
0	500	28	0.59560105889
0	516	29	0.339099272622
0	516	29	0.979358897759
0	541	30	0.502278087009
0	541	30	0.727782505194
0	564	32	0.604103067581
0	580	33	0.167079575832
0	580	33	0.189923674192
0	580	33	0.412311145868
0	638	37	0.24152384863
0	638	37	0.921547163268
0	686	40	0.927558493108
0	711	41	0.840507077512
0	711	41	0.997800060516
0	727	42	0.423541587915
0	727	42	0.677266600685
0	727	42	0.708607241624
0	743	43	0.387885375973
0	769	45	0.185358497697
0	769	45	0.636722860812
0	801	47	0.383027940899
0	814	48	0.01541456585
0	870	53	0.046400108945
0	870	53	0.084538493946
0	889	54	0.929530185873
0	908	55	0.172269383541
0	908	55	0.659654384279
0	924	56	0.044862648944
0	924	56	0.682787579658
0	949	57	0.036838025273
0	949	57	0.385751536351
0	988	60	0.013760171066
0	988	60	0.393355152432
0	1004	61	0.008090362762
0	1014	62	0.470640942562
0	1043	64	0.941587315657
0	1059	65	0.695130645549
0	1059	65	0.812600361989
0	1078	66	0.519395273166
0	1078	66	0.619501229494
0	1116	68	0.426323441501
0	1116	68	0.44394391255
0	1116	68	0.629289282736
0	1116	68	0.815006874383
0	1135	69	0.178917518421
0	1135	69	0.841988166354
0	1167	71	0.563318556646
0	1167	71	0.793360382136
0	1183	72	0.886836436355
0	1202	73	0.476377267002
0	1221	74	0.044699253925
0	1221	74	0.206108559124
0	1221	74	0.812126644474
0	1253	76	0.174998384816
0	1253	76	0.602075470865
0	1253	76	0.71973752488
0	1266	77	0.902446103095
0	1282	78	0.018409352614
0	1282	78	0.732493411619
0	1339	81	0.35452338029
0	1339	81	0.953001201555
0	1352	82	0.912309874482
0	1371	83	0.938657208571
0	1413	86	0.169501008459
0	1429	87	0.759819387677
0	1429	87	0.775366339783
0	1448	88	0.066265044224
0	1470	89	0.988037747068
0	1489	90	0.207465393535
0	1533	92	0.966160364572
0	1578	95	0.057518927442
0	1578	95	0.19828447608
0	1578	95	0.23442499309
0	1629	98	0.635165853175
0	1651	99	0.203188394094
0	1651	99	0.307155106575
0	1651	99	0.827551799552
1	17	1	46
1	30	2	15
1	66	5	48
1	66	5	57
1	85	6	66
1	85	6	28
1	85	6	15
1	101	7	62
1	142	9	44
1	142	9	1
1	142	9	49
1	164	10	45
1	205	12	7
1	205	12	45
1	205	12	42
1	231	14	62
1	265	15	48
1	281	16	75
1	281	16	8
1	281	16	12
1	297	17	1
1	310	18	10
1	351	20	19
1	351	20	25
1	351	20	11
1	351	20	66
1	373	21	59
1	373	21	12
1	373	21	59
1	373	21	32
1	389	22	37
1	389	22	45
1	408	23	56
1	408	23	63
1	430	24	11
1	440	25	59
1	459	26	42
1	500	28	36
1	500	28	17
1	516	29	41
1	516	29	21
1	541	30	73
1	541	30	35
1	564	32	56
1	580	33	35
1	580	33	24
1	580	33	50
1	638	37	9
1	638	37	23
1	686	40	39
1	711	41	46
1	711	41	20
1	727	42	22
1	727	42	32
1	727	42	23
1	743	43	18
1	769	45	29
1	769	45	61
1	801	47	5
1	814	48	36
1	870	53	74
1	870	53	2
1	889	54	53
1	908	55	54
1	908	55	15
1	924	56	18
1	924	56	32
1	949	57	50
1	949	57	31
1	988	60	29
1	988	60	72
1	1004	61	29
1	1014	62	36
1	1043	64	31
1	1059	65	15
1	1059	65	52
1	1078	66	52
1	1078	66	60
1	1116	68	25
1	1116	68	22
1	1116	68	54
1	1116	68	62
1	1135	69	75
1	1135	69	51
1	1167	71	1
1	1167	71	6
1	1183	72	4
1	1202	73	25
1	1221	74	1
1	1221	74	25
1	1221	74	40
1	1253	76	16
1	1253	76	56
1	1253	76	6
1	1266	77	15
1	1282	78	62
1	1282	78	11
1	1339	81	42
1	1339	81	11
1	1352	82	70
1	1371	83	57
1	1413	86	31
1	1429	87	42
1	1429	87	16
1	1448	88	61
1	1470	89	4
1	1489	90	11
1	1533	92	50
1	1578	95	68
1	1578	95	63
1	1578	95	52
1	1629	98	50
1	1651	99	59
1	1651	99	52
1	1651	99	32
2	17	1	46
2	30	2	15
2	37	3	0
2	44	4	0
2	66	5	105
2	85	6	109
2	101	7	62
2	117	8	0
2	142	9	94
2	164	10	45
2	177	11	0
2	205	12	94
2	218	13	0
2	231	14	62
2	265	15	48
2	281	16	95
2	297	17	1
2	310	18	10
2	326	19	0
2	351	20	121
2	373	21	162
2	389	22	82
2	408	23	119
2	430	24	11
2	440	25	59
2	459	26	42
2	481	27	0
2	500	28	53
2	516	29	62
2	541	30	108
2	551	31	0
2	564	32	56
2	580	33	109
2	590	34	0
2	612	35	0
2	619	36	0
2	638	37	32
2	663	38	0
2	673	39	0
2	686	40	39
2	711	41	66
2	727	42	77
2	743	43	18
2	756	44	0
2	769	45	90
2	782	46	0
2	801	47	5
2	814	48	36
2	824	49	0
2	834	50	0
2	844	51	0
2	857	52	0
2	870	53	76
2	889	54	53
2	908	55	69
2	924	56	50
2	949	57	81
2	956	58	0
2	963	59	0
2	988	60	101
2	1004	61	29
2	1014	62	36
2	1027	63	0
2	1043	64	31
2	1059	65	67
2	1078	66	112
2	1091	67	0
2	1116	68	163
2	1135	69	126
2	1148	70	0
2	1167	71	7
2	1183	72	4
2	1202	73	25
2	1221	74	66
2	1237	75	0
2	1253	76	78
2	1266	77	15
2	1282	78	73
2	1304	79	0
2	1323	80	0
2	1339	81	53
2	1352	82	70
2	1371	83	57
2	1381	84	0
2	1397	85	0
2	1413	86	31
2	1429	87	58
2	1448	88	61
2	1470	89	4
2	1489	90	11
2	1511	91	0
2	1533	92	50
2	1540	93	0
2	1556	94	0
2	1578	95	183
2	1591	96	0
2	1607	97	0
2	1629	98	50
2	1651	99	143
2	1673	100	0
3	18	1	0.518718384298
3	18	1	0.883242659544
3	31	2	0.334042039606
3	67	5	0.643144110121
3	102	7	0.495459360099
3	102	7	0.554169502318
3	118	8	0.492459546746
3	118	8	0.967827944898
3	143	9	0.465728510545
3	143	9	0.535249108159
3	165	10	0.562993174097
3	206	12	0.269058340487
3	206	12	0.310834639674
3	206	12	0.838973646074
3	219	13	0.531112093182
3	219	13	0.563522753809
3	232	14	0.191900455819
3	266	15	0.055078337949
3	266	15	0.427618056612
3	266	15	0.736312994292
3	298	17	0.126898253108
3	327	19	0.469285485272
3	352	20	0.542636960213
3	374	21	0.908979758602
3	482	27	0.010131838109
3	501	28	0.229941014189
3	501	28	0.378620091288
3	517	29	0.135639592727
3	542	30	0.86443048625
3	565	32	0.896914700683
3	613	35	0.148625470536
3	613	35	0.270183106977
3	664	38	0.076274881201
3	664	38	0.479052147281
3	674	39	0.217626053648
3	687	40	0.421072816992
3	712	41	0.472294610564
3	712	41	0.740515354637
3	712	41	0.978922254508
3	757	44	0.79247639529
3	783	46	0.122757841812
3	802	47	0.50347022571
3	815	48	0.388686218018
3	845	51	0.482723238453
3	858	52	0.93436494456
3	890	54	0.684345375589
3	909	55	0.608875005239
3	925	56	0.715938295848
3	950	57	0.188010105409
3	989	60	0.501807379091
3	989	60	0.994957018256
3	1005	61	0.590384526315
3	1028	63	0.028750385674
3	1028	63	0.518534776856
3	1044	64	0.393631068503
3	1079	66	0.042754453726
3	1079	66	0.064090980595
3	1117	68	0.031592692551
3	1117	68	0.984684514347
3	1149	70	0.070595257828
3	1149	70	0.257034484977
3	1168	71	0.009505365025
3	1184	72	0.41847304469
3	1203	73	0.454055252334
3	1222	74	0.927413253685
3	1238	75	0.063247145577
3	1238	75	0.568901736083
3	1305	79	0.227958570182
3	1305	79	0.464647276031
3	1324	80	0.526658560959
3	1324	80	0.647794163997
3	1340	81	0.570127673561
3	1353	82	0.654980901535
3	1372	83	0.235208439561
3	1372	83	0.293735645559
3	1372	83	0.801703559978
3	1382	84	0.940765589375
3	1398	85	0.137874064086
3	1398	85	0.179551114593
3	1414	86	0.132014137487
3	1414	86	0.723103982282
3	1430	87	0.851095158251
3	1449	88	0.513938299193
3	1471	89	0.071150429468
3	1471	89	0.101761162642
3	1490	90	0.748550107904
3	1490	90	0.912397425037
3	1512	91	0.309165583562
3	1534	92	0.097575607937
3	1534	92	0.608523956737
3	1534	92	0.89148725263
3	1579	95	0.646797404811
3	1579	95	0.791676000245
3	1630	98	0.193204478594
3	1630	98	0.205750217032
3	1652	99	0.132454343416
3	1674	100	0.375852458127
3	1674	100	0.515665040843
4	18	1	22
4	18	1	47
4	31	2	28
4	67	5	37
4	102	7	13
4	102	7	13
4	118	8	24
4	118	8	10
4	143	9	48
4	143	9	40
4	165	10	13
4	206	12	67
4	206	12	73
4	206	12	22
4	219	13	71
4	219	13	40
4	232	14	45
4	266	15	70
4	266	15	65
4	266	15	2
4	298	17	5
4	327	19	18
4	352	20	40
4	374	21	72
4	482	27	49
4	501	28	48
4	501	28	50
4	517	29	23
4	542	30	40
4	565	32	74
4	613	35	75
4	613	35	42
4	664	38	42
4	664	38	37
4	674	39	21
4	687	40	58
4	712	41	70
4	712	41	52
4	712	41	48
4	757	44	15
4	783	46	23
4	802	47	72
4	815	48	50
4	845	51	61
4	858	52	21
4	890	54	32
4	909	55	31
4	925	56	60
4	950	57	54
4	989	60	71
4	989	60	29
4	1005	61	32
4	1028	63	68
4	1028	63	33
4	1044	64	41
4	1079	66	3
4	1079	66	1
4	1117	68	43
4	1117	68	37
4	1149	70	61
4	1149	70	50
4	1168	71	28
4	1184	72	51
4	1203	73	39
4	1222	74	36
4	1238	75	54
4	1238	75	54
4	1305	79	18
4	1305	79	74
4	1324	80	61
4	1324	80	52
4	1340	81	31
4	1353	82	27
4	1372	83	72
4	1372	83	5
4	1372	83	5
4	1382	84	21
4	1398	85	34
4	1398	85	22
4	1414	86	67
4	1414	86	14
4	1430	87	18
4	1449	88	37
4	1471	89	34
4	1471	89	25
4	1490	90	36
4	1490	90	24
4	1512	91	17
4	1534	92	21
4	1534	92	8
4	1534	92	12
4	1579	95	33
4	1579	95	66
4	1630	98	42
4	1630	98	19
4	1652	99	1
4	1674	100	50
4	1674	100	24
5	18	1	69
5	31	2	28
5	38	3	0
5	45	4	0
5	67	5	37
5	86	6	0
5	102	7	26
5	118	8	34
5	143	9	88
5	165	10	13
5	178	11	0
5	206	12	162
5	219	13	111
5	232	14	45
5	266	15	137
5	282	16	0
5	298	17	5
5	311	18	0
5	327	19	18
5	352	20	40
5	374	21	72
5	390	22	0
5	409	23	0
5	431	24	0
5	441	25	0
5	460	26	0
5	482	27	49
5	501	28	98
5	517	29	23
5	542	30	40
5	552	31	0
5	565	32	74
5	581	33	0
5	591	34	0
5	613	35	117
5	620	36	0
5	639	37	0
5	664	38	79
5	674	39	21
5	687	40	58
5	712	41	170
5	728	42	0
5	744	43	0
5	757	44	15
5	770	45	0
5	783	46	23
5	802	47	72
5	815	48	50
5	825	49	0
5	835	50	0
5	845	51	61
5	858	52	21
5	871	53	0
5	890	54	32
5	909	55	31
5	925	56	60
5	950	57	54
5	957	58	0
5	964	59	0
5	989	60	100
5	1005	61	32
5	1015	62	0
5	1028	63	101
5	1044	64	41
5	1060	65	0
5	1079	66	4
5	1092	67	0
5	1117	68	80
5	1136	69	0
5	1149	70	111
5	1168	71	28
5	1184	72	51
5	1203	73	39
5	1222	74	36
5	1238	75	108
5	1254	76	0
5	1267	77	0
5	1283	78	0
5	1305	79	92
5	1324	80	113
5	1340	81	31
5	1353	82	27
5	1372	83	82
5	1382	84	21
5	1398	85	56
5	1414	86	81
5	1430	87	18
5	1449	88	37
5	1471	89	59
5	1490	90	60
5	1512	91	17
5	1534	92	41
5	1541	93	0
5	1557	94	0
5	1579	95	99
5	1592	96	0
5	1608	97	0
5	1630	98	61
5	1652	99	1
5	1674	100	74
6	19	1	0.983920338891
6	68	5	0.014363897806
6	68	5	0.676407955412
6	87	6	0.010774630153
6	119	8	0.609541747421
6	144	9	0.029823663978
6	166	10	0.223703416128
6	166	10	0.308338038844
6	166	10	0.94453028095
6	179	11	0.731737326048
6	179	11	0.925647359342
6	207	12	0.775671486412
6	267	15	0.255864694969
6	267	15	0.361418478581
6	267	15	0.488234159884
6	267	15	0.741179131579
6	267	15	0.840078405336
6	299	17	0.968224995893
6	312	18	0.575483653535
6	328	19	0.123757425125
6	328	19	0.948485612079
6	353	20	0.447493175501
6	391	22	0.656153244732
6	410	23	0.314555969571
6	410	23	0.98282247177
6	432	24	0.014528153636
6	432	24	0.040897449821
6	432	24	0.357093678621
6	432	24	0.783791013642
6	461	26	0.236699953719
6	461	26	0.28375357138
6	461	26	0.367624109368
6	483	27	0.021733914618
6	483	27	0.27352286104
6	483	27	0.346955248015
6	483	27	0.589698562073
6	543	30	0.055446113308
6	543	30	0.868371903047
6	543	30	0.950391681769
6	553	31	0.898281857776
6	592	34	0.824452893982
6	614	35	0.406806435612
6	614	35	0.450065976435
6	614	35	0.716471368587
6	640	37	0.092467363877
6	640	37	0.334444896574
6	665	38	0.387663207797
6	665	38	0.513622540958
6	665	38	0.54871353943
6	665	38	0.749627449063
6	713	41	0.169211168058
6	745	43	0.822825694877
6	745	43	0.873012201648
6	758	44	0.094944058825
6	784	46	0.188352026497
6	803	47	0.504551179627
6	803	47	0.863182627306
6	826	49	0.795353753431
6	836	50	0.527664121121
6	859	52	0.307198754092
6	891	54	0.946909911856
6	891	54	0.950286901361
6	910	55	0.652306072101
6	951	57	0.439230224897
6	951	57	0.45682685235
6	951	57	0.684145414766
6	990	60	0.951305665454
6	990	60	0.996217531877
6	1006	61	0.643192764482
6	1045	64	0.999299937816
6	1061	65	0.882228079172
6	1093	67	0.255940339607
6	1093	67	0.28494699575
6	1137	69	0.797578217034
6	1137	69	0.978923482047
6	1169	71	0.80083489861
6	1185	72	0.771793611954
6	1204	73	0.118460271738
6	1204	73	0.706583386342
6	1239	75	0.920084687384
6	1268	77	0.666209118118
6	1284	78	0.194128113066
6	1306	79	0.455148378432
6	1306	79	0.48673532835
6	1306	79	0.947805537663
6	1325	80	0.067242773631
6	1325	80	0.086153869703
6	1399	85	0.852682670609
6	1450	88	0.453097578234
6	1450	88	0.967823787758
6	1472	89	0.095893913389
6	1472	89	0.401605561523
6	1491	90	0.364415673937
6	1513	91	0.163537515252
6	1513	91	0.292421253182
6	1513	91	0.820201398043
6	1513	91	0.880928934553
6	1535	92	0.444858969406
6	1558	94	0.269111565916
6	1558	94	0.713691020039
6	1558	94	0.811832494531
6	1593	96	0.176586761278
6	1593	96	0.539183137939
6	1609	97	0.102294109899
6	1609	97	0.877987554003
6	1609	97	0.900436956591
6	1631	98	0.159799021615
6	1631	98	0.882824183953
6	1653	99	0.31287976841
6	1675	100	0.186272831439
6	1675	100	0.359316748592
6	1675	100	0.630618201046
7	19	1	53
7	68	5	45
7	68	5	34
7	87	6	6
7	119	8	74
7	144	9	27
7	166	10	49
7	166	10	37
7	166	10	57
7	179	11	4
7	179	11	29
7	207	12	40
7	267	15	12
7	267	15	13
7	267	15	44
7	267	15	75
7	267	15	40
7	299	17	28
7	312	18	65
7	328	19	51
7	328	19	63
7	353	20	64
7	391	22	71
7	410	23	60
7	410	23	19
7	432	24	18
7	432	24	47
7	432	24	55
7	432	24	26
7	461	26	23
7	461	26	62
7	461	26	64
7	483	27	4
7	483	27	13
7	483	27	39
7	483	27	22
7	543	30	74
7	543	30	59
7	543	30	16
7	553	31	17
7	592	34	2
7	614	35	71
7	614	35	11
7	614	35	64
7	640	37	55
7	640	37	38
7	665	38	35
7	665	38	52
7	665	38	6
7	665	38	42
7	713	41	30
7	745	43	24
7	745	43	46
7	758	44	74
7	784	46	39
7	803	47	24
7	803	47	40
7	826	49	64
7	836	50	66
7	859	52	8
7	891	54	32
7	891	54	1
7	910	55	54
7	951	57	31
7	951	57	42
7	951	57	3
7	990	60	62
7	990	60	13
7	1006	61	8
7	1045	64	15
7	1061	65	74
7	1093	67	46
7	1093	67	40
7	1137	69	10
7	1137	69	11
7	1169	71	53
7	1185	72	36
7	1204	73	38
7	1204	73	17
7	1239	75	37
7	1268	77	38
7	1284	78	74
7	1306	79	48
7	1306	79	35
7	1306	79	49
7	1325	80	12
7	1325	80	22
7	1399	85	31
7	1450	88	17
7	1450	88	45
7	1472	89	12
7	1472	89	37
7	1491	90	36
7	1513	91	17
7	1513	91	31
7	1513	91	55
7	1513	91	51
7	1535	92	4
7	1558	94	41
7	1558	94	64
7	1558	94	15
7	1593	96	17
7	1593	96	32
7	1609	97	62
7	1609	97	16
7	1609	97	58
7	1631	98	33
7	1631	98	15
7	1653	99	30
7	1675	100	22
7	1675	100	74
7	1675	100	58
8	19	1	53
8	32	2	0
8	39	3	0
8	46	4	0
8	68	5	79
8	87	6	6
8	103	7	0
8	119	8	74
8	144	9	27
8	166	10	143
8	179	11	33
8	207	12	40
8	220	13	0
8	233	14	0
8	267	15	184
8	283	16	0
8	299	17	28
8	312	18	65
8	328	19	114
8	353	20	64
8	375	21	0
8	391	22	71
8	410	23	79
8	432	24	146
8	442	25	0
8	461	26	149
8	483	27	78
8	502	28	0
8	518	29	0
8	543	30	149
8	553	31	17
8	566	32	0
8	582	33	0
8	592	34	2
8	614	35	146
8	621	36	0
8	640	37	93
8	665	38	135
8	675	39	0
8	688	40	0
8	713	41	30
8	729	42	0
8	745	43	70
8	758	44	74
8	771	45	0
8	784	46	39
8	803	47	64
8	816	48	0
8	826	49	64
8	836	50	66
8	846	51	0
8	859	52	8
8	872	53	0
8	891	54	33
8	910	55	54
8	926	56	0
8	951	57	76
8	958	58	0
8	965	59	0
8	990	60	75
8	1006	61	8
8	1016	62	0
8	1029	63	0
8	1045	64	15
8	1061	65	74
8	1080	66	0
8	1093	67	86
8	1118	68	0
8	1137	69	21
8	1150	70	0
8	1169	71	53
8	1185	72	36
8	1204	73	55
8	1223	74	0
8	1239	75	37
8	1255	76	0
8	1268	77	38
8	1284	78	74
8	1306	79	132
8	1325	80	34
8	1341	81	0
8	1354	82	0
8	1373	83	0
8	1383	84	0
8	1399	85	31
8	1415	86	0
8	1431	87	0
8	1450	88	62
8	1472	89	49
8	1491	90	36
8	1513	91	154
8	1535	92	4
8	1542	93	0
8	1558	94	120
8	1580	95	0
8	1593	96	49
8	1609	97	136
8	1631	98	48
8	1653	99	30
8	1675	100	154

