version 2
run General-0-20200903-19:02:08-9264
attr configname General
attr datetime 20200903-19:02:08
attr experiment General
attr inifile FairNetworkConf.ini
attr iterationvars "$nUser=3, $0=100"
attr iterationvarsf nUser=3,100-
attr measurement "$nUser=3, $0=100"
attr network FairNetwork
attr processid 9264
attr repetition 0
attr replication #0
attr resultdir results
attr runnumber 0
attr seedset 0
itervar nUser 3
param **.NUM_USER 3
param **.TIMESLOT 1000ms
param **.packetGenerator.senders[*].lambda 100

vector 0 FairNetwork.user[0] packetDelayStat:vector ETV
attr "" ""
attr source packetDelay
attr title "Packet delay, vector"
vector 1 FairNetwork.user[0] packetBytesStat:vector ETV
attr "" ""
attr source packetBytes
attr title "Packet bytes, vector"
vector 2 FairNetwork.user[0] userThroughputStat:vector ETV
attr "" ""
attr source userThroughput
attr title "User throughput, vector"
vector 3 FairNetwork.user[1] userThroughputStat:vector ETV
attr "" ""
attr source userThroughput
attr title "User throughput, vector"
vector 4 FairNetwork.user[2] userThroughputStat:vector ETV
attr "" ""
attr source userThroughput
attr title "User throughput, vector"
vector 5 FairNetwork.user[1] packetDelayStat:vector ETV
attr "" ""
attr source packetDelay
attr title "Packet delay, vector"
vector 6 FairNetwork.user[1] packetBytesStat:vector ETV
attr "" ""
attr source packetBytes
attr title "Packet bytes, vector"
vector 7 FairNetwork.user[2] packetDelayStat:vector ETV
attr "" ""
attr source packetDelay
attr title "Packet delay, vector"
vector 8 FairNetwork.user[2] packetBytesStat:vector ETV
attr "" ""
attr source packetBytes
attr title "Packet bytes, vector"
0	914	1	0.493594971974
0	914	1	0.509647367545
0	914	1	0.516064459272
0	914	1	0.554516677963
0	914	1	0.574925600122
0	914	1	0.595328742701
0	914	1	0.596841051238
0	914	1	0.611898893824
0	914	1	0.643400593111
0	914	1	0.661275469745
0	914	1	0.665867951118
0	914	1	0.666072207002
0	914	1	0.676518332085
0	914	1	0.677429942346
0	914	1	0.681545722308
0	914	1	0.682282575863
0	914	1	0.700366268506
0	914	1	0.726348809364
0	914	1	0.731337529454
0	914	1	0.739731857983
0	914	1	0.746270683655
0	914	1	0.753797424788
0	914	1	0.770519536791
0	914	1	0.786208497967
0	914	1	0.79270296145
0	914	1	0.797538982499
0	914	1	0.800722543907
0	914	1	0.833871666706
0	914	1	0.834455513397
0	914	1	0.856690757617
0	914	1	0.860222349008
0	914	1	0.865977540977
0	914	1	0.870828822614
0	914	1	0.881210415621
0	914	1	0.890980479885
0	914	1	0.896490964752
0	914	1	0.915280605294
0	914	1	0.923152616694
0	914	1	0.942668070053
0	914	1	0.951900301368
0	914	1	0.970496343489
0	914	1	0.983055651069
0	914	1	0.992041254954
0	4596	5	4.471265656629
0	4596	5	4.477454951225
0	7461	8	7.463916012417
0	8257	9	7.886083054222
0	8257	9	7.896661318356
0	8257	9	7.897737669438
0	8257	9	7.929667135859
0	8257	9	7.974212104321
0	8257	9	7.984270814373
0	8257	9	7.990044057481
0	8257	9	7.990435889045
0	8257	9	7.99888016698
0	8257	9	8.002811292553
0	8257	9	8.007332313155
0	8257	9	8.016692928753
0	8257	9	8.020482548396
0	8257	9	8.034372975294
0	8257	9	8.035753262178
0	8257	9	8.040187302464
0	8257	9	8.042549369525
0	8257	9	8.044423630185
0	8257	9	8.055529604642
0	8257	9	8.066117945957
0	8257	9	8.077107070633
0	8257	9	8.112109207478
0	8257	9	8.112730360383
0	8257	9	8.113775972641
0	8257	9	8.125737050636
0	8257	9	8.149000561253
0	8257	9	8.15474588532
0	8257	9	8.164240831155
0	8257	9	8.168696016106
0	8257	9	8.174673476874
0	8257	9	8.186124866421
0	8257	9	8.209414000163
0	8257	9	8.238193150376
0	8257	9	8.243078720869
0	8257	9	8.252674200643
0	8257	9	8.255188619964
0	8257	9	8.264658586736
0	8257	9	8.26627995163
0	8257	9	8.275893761021
0	8257	9	8.279811469128
0	8257	9	8.28000115482
0	8257	9	8.281453935093
0	8257	9	8.289857282149
0	8257	9	8.292297767056
0	8257	9	8.298388591288
0	8257	9	8.311741493134
0	8257	9	8.326624041392
0	8257	9	8.328686074212
0	8257	9	8.331758877734
0	8257	9	8.338175824754
0	8257	9	8.343531481956
0	8257	9	8.344650943562
0	8257	9	8.35202921648
0	8257	9	8.366242863281
0	8257	9	8.395187068061
0	8257	9	8.402895414646
0	8257	9	8.404442711451
0	8257	9	8.413165923401
0	8257	9	8.423380242144
0	8257	9	8.436132519166
0	8257	9	8.43739126326
0	8257	9	8.448750652677
0	11011	12	10.385484422043
0	11011	12	10.386764989696
0	11011	12	10.425680690924
0	11011	12	10.429004793334
0	11011	12	10.434833577223
0	11011	12	10.435233340214
0	11011	12	10.435435241495
0	11011	12	10.448877694217
0	11011	12	10.454877163083
0	11011	12	10.464161948052
0	11011	12	10.464735217316
0	11011	12	10.502354490161
0	11011	12	10.509480326094
0	11011	12	10.515803692058
0	11011	12	10.536856905066
0	11011	12	10.574347219662
0	11011	12	10.610083103385
0	11011	12	10.611093451138
0	11011	12	10.622291594796
0	11011	12	10.640489783989
0	11011	12	10.650240803331
0	11011	12	10.651262252146
0	11011	12	10.65139889793
0	11011	12	10.668602214507
0	11011	12	10.679464908316
0	11011	12	10.684065047893
0	11011	12	10.713936946812
0	11011	12	10.716125752777
0	11011	12	10.73119210611
0	11011	12	10.732679228803
0	11011	12	10.736494787237
0	11011	12	10.747175509208
0	11011	12	10.758407192223
0	11011	12	10.759576746321
0	11011	12	10.76370175862
0	11011	12	10.765433033181
0	11011	12	10.775201673922
0	11011	12	10.778004444007
0	11011	12	10.784442254023
0	11011	12	10.790721669833
0	11011	12	10.796072316604
0	11011	12	10.798993121937
0	11011	12	10.807712280473
0	11011	12	10.818299707624
0	11011	12	10.871900711126
0	11011	12	10.87365984658
0	11011	12	10.883740039034
0	12879	14	12.301909064994
0	12879	14	12.302572039009
0	12879	14	12.32761115684
0	12879	14	12.332960000598
0	12879	14	12.354202372568
0	12879	14	12.358029382057
0	12879	14	12.369698117322
0	12879	14	12.370962003686
0	12879	14	12.37751846653
0	12879	14	12.381030227424
0	16621	18	15.686705654685
0	16621	18	15.690235856018
0	16621	18	15.691471122492
0	16621	18	15.703493508164
0	16621	18	15.741923573996
0	16621	18	15.760658172795
0	16621	18	15.766621966738
0	16621	18	15.772548207013
0	16621	18	15.783944286648
0	16621	18	15.814467103217
0	16621	18	15.836682172202
0	16621	18	15.839206372131
0	16621	18	15.849392959431
0	16621	18	15.857885167547
0	16621	18	15.880522503306
0	16621	18	15.889488412014
0	16621	18	15.89453185008
0	16621	18	15.903115779758
0	16621	18	15.917226023851
0	16621	18	15.920086233576
0	16621	18	15.925765275111
0	16621	18	15.958516706888
0	16621	18	15.96192017427
0	16621	18	15.975207753008
0	16621	18	15.987372839542
0	16621	18	15.990520056151
0	16621	18	15.998950886472
0	16621	18	16.010277227892
0	16621	18	16.011860642954
0	16621	18	16.011907708359
0	16621	18	16.016525017319
0	16621	18	16.034182428043
0	16621	18	16.035984950563
0	16621	18	16.036188075151
0	16621	18	16.044236049149
0	16621	18	16.053067339569
0	16621	18	16.058139340802
0	16621	18	16.060162845188
0	16621	18	16.063238022426
0	16621	18	16.066654564096
0	16621	18	16.085067388811
0	16621	18	16.097666726912
0	16621	18	16.108084533454
0	16621	18	16.10949784059
0	16621	18	16.1279711171
0	16621	18	16.138979576201
0	16621	18	16.139073583708
0	16621	18	16.142909185849
0	16621	18	16.146162590004
0	16621	18	16.172655149291
0	16621	18	16.173522854114
0	16621	18	16.182101810525
0	16621	18	16.207504855605
0	16621	18	16.208491358689
0	16621	18	16.233347182259
0	16621	18	16.240754771763
0	16621	18	16.247867251135
0	16621	18	16.250951399536
0	16621	18	16.270983804761
0	16621	18	16.279344780081
0	16621	18	16.287673215242
0	16621	18	16.299465110513
0	21054	23	20.597086169033
0	21054	23	20.600843557457
0	21054	23	20.60954891572
0	21054	23	20.612423020481
0	21054	23	20.633718014442
0	21054	23	20.64497083461
0	21054	23	20.650021022088
0	21054	23	20.655328247054
0	21054	23	20.672137469099
0	23574	26	23.542094160002
0	23574	26	23.575737864533
0	24433	27	24.402997697185
0	24433	27	24.409438744268
0	24433	27	24.418762773072
0	24433	27	24.428407308727
0	24433	27	24.433921268628
0	24433	27	24.438944376611
0	24433	27	24.449272346717
0	24433	27	24.451892919134
0	24433	27	24.483147602711
0	24433	27	24.490766280424
0	24433	27	24.497724275033
0	24433	27	24.508502623874
0	24433	27	24.521421716562
0	24433	27	24.530300330666
0	25334	28	24.753861506024
0	25334	28	24.754578259867
0	25334	28	24.754916127723
0	25334	28	24.760144828024
0	25334	28	24.761652738126
0	25334	28	24.770071547743
0	25334	28	24.775371576524
0	25334	28	24.791838767537
0	25334	28	24.811858632492
0	25334	28	24.830697921358
0	25334	28	24.845796155914
0	25334	28	24.84711799301
0	25334	28	24.848943379029
0	25334	28	24.858503043268
0	25334	28	24.86560222254
0	25334	28	24.867375478291
0	25334	28	24.86775830742
0	25334	28	24.888017395591
0	25334	28	24.911519168489
0	25334	28	24.913137869356
0	25334	28	24.931535197207
0	25334	28	24.999189102406
0	25334	28	25.005523728583
0	25334	28	25.018049803832
0	25334	28	25.022393260391
0	25334	28	25.047586081692
0	25334	28	25.048634900048
0	25334	28	25.049691026484
0	25334	28	25.055631761467
0	25334	28	25.06780195642
0	25334	28	25.075502725015
0	25334	28	25.091911700794
0	25334	28	25.094927359926
0	25334	28	25.117176506498
0	25334	28	25.158554604103
0	25334	28	25.164279219617
0	25334	28	25.165302425766
0	25334	28	25.169884154606
0	25334	28	25.171407090859
0	25334	28	25.194093430786
0	25334	28	25.196594245736
0	25334	28	25.202240350747
0	25334	28	25.206111651668
0	25334	28	25.216670147755
0	25334	28	25.251395502548
0	25334	28	25.261985596402
0	25334	28	25.262327630586
0	25334	28	25.270868427942
0	25334	28	25.2788939478
0	25334	28	25.287831238583
0	25334	28	25.292201518721
0	25334	28	25.300640403447
0	25334	28	25.301609630993
0	25334	28	25.305151872315
0	25334	28	25.3062373433
0	25334	28	25.307693083084
0	25334	28	25.328767559134
0	25334	28	25.334367169835
0	25334	28	25.3481969619
0	25334	28	25.357820712458
0	25334	28	25.362657069324
0	25334	28	25.366083065571
0	25334	28	25.369479712897
0	25334	28	25.380272914884
0	25334	28	25.392863350057
0	25334	28	25.396452622216
0	25334	28	25.402803899372
0	29839	33	29.696735926309
0	29839	33	29.701408651973
0	29839	33	29.713363037636
0	30734	34	30.56893040055
0	30734	34	30.573392928755
0	30734	34	30.587870869575
0	30734	34	30.587988701894
0	30734	34	30.590611994986
0	30734	34	30.609977767361
0	30734	34	30.610145445021
0	30734	34	30.64724505094
0	30734	34	30.651794169388
0	30734	34	30.67192189675
0	30734	34	30.672441022272
0	30734	34	30.68524436431
0	30734	34	30.690692935591
0	32542	36	32.540084283029
0	33392	37	33.460032972733
0	33392	37	33.466258946173
0	33392	37	33.482043073394
0	33392	37	33.483918262906
0	33392	37	33.48410521761
0	33392	37	33.486083512685
0	33392	37	33.488314904766
0	33392	37	33.492454693993
0	33392	37	33.493013394522
0	33392	37	33.49973799969
0	33392	37	33.50709931069
0	33392	37	33.511245436117
0	33392	37	33.513128385869
0	33392	37	33.526991299389
0	34386	38	34.329262953347
0	34386	38	34.331062526763
0	34386	38	34.346370839026
0	34386	38	34.346694407072
0	34386	38	34.355774047345
0	34386	38	34.367962015378
0	34386	38	34.377333402555
0	34386	38	34.40365559118
0	34386	38	34.432501034064
0	34386	38	34.436737605078
0	34386	38	34.457497915682
0	38122	42	38.312099305013
0	38122	42	38.312616134071
0	38122	42	38.322330955652
0	38975	43	39.209649189389
0	38975	43	39.212758867439
0	38975	43	39.239972349998
0	38975	43	39.288763678878
0	38975	43	39.291480359581
0	38975	43	39.303490068646
0	39897	44	40.072549812232
0	39897	44	40.07493734096
0	39897	44	40.080015992187
0	39897	44	40.088095792721
0	39897	44	40.09183465768
0	39897	44	40.125214001019
0	39897	44	40.138311854733
0	39897	44	40.152208625371
0	39897	44	40.16112241114
0	39897	44	40.181094130815
0	39897	44	40.188764927361
0	39897	44	40.200130892314
0	41678	46	41.493972649494
0	41678	46	41.501306326226
0	41678	46	41.519087759594
0	41678	46	41.523013489876
0	41678	46	41.531888509161
0	41678	46	41.542267009916
0	41678	46	41.547103393791
0	41678	46	41.570581831405
0	41678	46	41.574438708345
0	41678	46	41.59577434122
0	41678	46	41.609978175776
0	41678	46	41.612581689891
0	41678	46	41.612790362077
0	41678	46	41.614266322406
0	41678	46	41.617322371424
0	41678	46	41.641011553132
0	41678	46	41.651890597468
0	41678	46	41.657978926605
0	41678	46	41.660423836825
0	41678	46	41.666763137019
0	41678	46	41.713159662283
0	41678	46	41.725701694984
0	41678	46	41.748400095142
0	41678	46	41.757740698468
0	41678	46	41.765431896479
0	41678	46	41.776735451938
0	41678	46	41.782781264121
0	41678	46	41.78929357144
0	41678	46	41.800668956495
0	41678	46	41.814288273738
0	41678	46	41.814984450449
0	41678	46	41.834268051818
0	41678	46	41.834517935351
0	41678	46	41.84233769256
0	41678	46	41.844317369913
0	41678	46	41.853931765629
0	41678	46	41.858675928532
0	41678	46	41.89614287467
0	41678	46	41.908061455707
0	41678	46	41.929348156652
0	41678	46	41.933084854596
0	41678	46	41.939775991833
0	41678	46	41.945474967486
0	41678	46	41.946055691107
0	41678	46	41.946653500736
0	41678	46	41.947545043636
0	41678	46	41.950480120155
0	41678	46	41.961891499184
0	41678	46	41.964471626823
0	41678	46	41.999616413628
0	41678	46	42.006358859324
0	41678	46	42.012375649189
0	41678	46	42.025829123521
0	41678	46	42.034258911275
0	41678	46	42.063149667194
0	41678	46	42.065618259882
0	41678	46	42.067678580367
0	41678	46	42.070194566498
0	43354	48	43.155886274375
0	43354	48	43.166278330741
0	43354	48	43.170965095501
0	43354	48	43.184074819183
0	43354	48	43.18960320289
0	43354	48	43.191271949302
0	43354	48	43.193597199486
0	43354	48	43.206030707265
0	43354	48	43.206290684717
0	43354	48	43.212672570773
0	43354	48	43.219974847425
0	43354	48	43.251545802839
0	43354	48	43.253945038033
0	43354	48	43.257709331548
0	43354	48	43.260638846133
0	43354	48	43.281866312672
0	43354	48	43.294991392602
0	43354	48	43.297597793896
0	43354	48	43.32704259667
0	43354	48	43.342589226048
0	43354	48	43.345016410985
0	43354	48	43.351621441782
0	43354	48	43.363252574616
0	43354	48	43.369343020743
0	43354	48	43.399874867439
0	43354	48	43.411265443946
0	43354	48	43.413318921633
0	43354	48	43.434976558442
0	43354	48	43.45097375286
0	43354	48	43.45651546115
0	43354	48	43.459711207699
0	43354	48	43.463448840637
0	43354	48	43.484057053046
0	43354	48	43.484057606565
0	45228	50	45.143986624649
0	45228	50	45.147238784829
0	45228	50	45.149657981277
0	46132	51	45.818826803262
0	46132	51	45.827608954049
0	46132	51	45.840765216632
0	46132	51	45.848799134259
0	46132	51	45.862632298921
0	46132	51	45.863503384754
0	46132	51	45.86595536568
0	46132	51	45.889360285287
0	46132	51	45.890331962071
0	46132	51	45.904141593028
0	46132	51	45.917885023172
0	46132	51	45.932380570936
0	46132	51	45.932689833852
0	46132	51	45.960896193336
0	46132	51	45.973700436876
0	46132	51	45.978094990781
0	46132	51	45.979428397014
0	46132	51	45.986123802923
0	46132	51	45.987926545919
0	46132	51	45.989491303623
0	46132	51	45.991783746875
0	46132	51	45.993808334512
0	46132	51	46.012160968541
0	46132	51	46.020494750947
0	46132	51	46.026715120138
0	46132	51	46.031757919471
0	46132	51	46.043947912923
0	46132	51	46.056566039658
0	46132	51	46.058488654066
0	46132	51	46.059905074414
0	46132	51	46.063147065549
0	46132	51	46.070432303976
0	46132	51	46.081666908971
0	46132	51	46.08291723487
0	46132	51	46.096664034408
0	46132	51	46.116604426421
0	46132	51	46.133085188153
0	46132	51	46.141923044713
0	48883	54	48.77649166034
0	48883	54	48.779873207488
0	48883	54	48.783328403325
0	48883	54	48.785674961818
0	48883	54	48.818359925826
0	49733	55	49.77373638097
0	50643	56	50.752442124623
0	50643	56	50.760553534845
0	50643	56	50.760719195789
0	50643	56	50.761370324437
0	50643	56	50.762427196178
0	54166	60	54.639901717536
0	54166	60	54.681461428492
0	54166	60	54.696839715637
0	54166	60	54.714739611682
0	54166	60	54.725823709224
0	54166	60	54.725916539468
0	55040	61	55.506753327968
0	55040	61	55.516079446521
0	55040	61	55.536995012247
0	55040	61	55.552485129039
0	55040	61	55.59042536687
0	55040	61	55.599111024185
0	55040	61	55.605759101681
0	55040	61	55.612941566482
0	55040	61	55.613602486589
0	55040	61	55.61560690854
0	55040	61	55.62443571399
0	55040	61	55.636592618724
0	55875	62	55.917837387123
0	55875	62	55.923048175334
0	55875	62	55.924077858971
0	55875	62	55.963554191647
0	55875	62	55.966094305431
0	55875	62	55.967380107804
0	55875	62	55.974540560984
0	55875	62	55.97966770741
0	55875	62	55.981773040292
0	55875	62	55.985309006045
0	55875	62	56.002575339842
0	55875	62	56.008165416542
0	55875	62	56.009637666915
0	55875	62	56.014922339198
0	55875	62	56.019520252376
0	55875	62	56.022660231357
0	55875	62	56.032862102237
0	55875	62	56.03290266545
0	55875	62	56.039782100235
0	55875	62	56.053788857205
0	55875	62	56.060296830629
0	55875	62	56.102315424891
0	55875	62	56.14239492144
0	55875	62	56.157555610738
0	55875	62	56.159158951683
0	55875	62	56.178986440729
0	55875	62	56.183251798849
0	55875	62	56.219848372157
0	55875	62	56.219981624605
0	55875	62	56.234824049432
0	55875	62	56.244444168698
0	55875	62	56.246605130864
0	55875	62	56.265506147845
0	55875	62	56.284120464275
0	55875	62	56.287587997313
0	55875	62	56.294482342691
0	55875	62	56.315219957322
0	55875	62	56.327548761952
0	55875	62	56.337503398386
0	55875	62	56.344161823252
0	55875	62	56.360216410883
0	55875	62	56.372788780839
0	55875	62	56.401155182773
0	55875	62	56.407933202794
0	55875	62	56.437755209549
0	55875	62	56.458864097293
0	55875	62	56.461499868421
0	55875	62	56.467572661307
0	55875	62	56.500161871079
0	55875	62	56.502626029301
0	59539	66	59.685204750647
0	59539	66	59.689139774758
0	59539	66	59.690561029872
0	59539	66	59.716626747895
0	59539	66	59.719269452536
0	59539	66	59.734195774178
0	59539	66	59.739425450715
0	59539	66	59.743018389766
0	59539	66	59.743864184684
0	59539	66	59.748964093022
0	59539	66	59.753015921845
0	59539	66	59.757467415239
0	59539	66	59.772341712782
0	59539	66	59.777641328575
0	59539	66	59.801345204381
0	59539	66	59.816898147985
0	59539	66	59.849297777654
0	59539	66	59.853507710634
0	59539	66	59.889597120684
0	59539	66	59.898018483712
0	61284	68	61.310638541751
0	61284	68	61.317758622407
0	61284	68	61.319757177786
0	61284	68	61.337294324236
0	61284	68	61.342073504111
0	61284	68	61.347755208948
0	61284	68	61.351089242332
0	61284	68	61.370237664908
0	61284	68	61.382132627421
0	61284	68	61.387966865131
0	61284	68	61.399464279008
0	61284	68	61.406900110926
0	61284	68	61.412990755479
0	61284	68	61.419125146375
0	61284	68	61.422164861967
0	61284	68	61.428857890687
0	61284	68	61.432447503871
0	61284	68	61.438919250911
0	61284	68	61.439488916236
0	61284	68	61.448452208286
0	61284	68	61.44986188713
0	61284	68	61.452820905862
0	61284	68	61.455972506149
0	61284	68	61.456987846988
0	61284	68	61.469972303344
0	61284	68	61.47473708917
0	61284	68	61.494437664826
0	61284	68	61.512133863058
0	61284	68	61.520284046367
0	61284	68	61.53423273728
0	61284	68	61.539689314428
0	61284	68	61.545348259844
0	61284	68	61.548163500069
0	61284	68	61.564793157876
0	61284	68	61.575942032095
0	61284	68	61.587255819771
0	61284	68	61.588194565244
0	61284	68	61.591079692347
0	61284	68	61.591908315076
0	61284	68	61.613352169721
0	61284	68	61.614941501518
0	61284	68	61.618573923707
0	61284	68	61.633295965287
0	61284	68	61.640920202129
0	61284	68	61.641035134631
0	61284	68	61.641175600543
0	61284	68	61.654107079131
0	61284	68	61.684655676921
0	64963	72	64.924594991282
0	64963	72	64.93172883411
0	64963	72	64.939857817722
0	64963	72	64.94548606974
0	64963	72	64.960794553929
0	64963	72	64.961154582226
0	64963	72	64.967603667138
0	64963	72	64.977976118079
0	64963	72	64.979889078538
0	64963	72	65.011937166834
0	64963	72	65.017291210345
0	64963	72	65.025907885263
0	64963	72	65.032610204029
0	64963	72	65.036274716947
0	64963	72	65.057705713951
0	64963	72	65.065021167342
0	64963	72	65.071360488607
0	64963	72	65.072161277166
0	64963	72	65.078910786903
0	64963	72	65.094994965394
0	64963	72	65.107553900237
0	64963	72	65.108010280732
0	64963	72	65.13393476682
0	64963	72	65.140093959658
0	64963	72	65.15519857567
0	64963	72	65.157393257279
0	64963	72	65.158825787493
0	64963	72	65.163459687768
0	64963	72	65.185720527662
0	64963	72	65.188906366141
0	64963	72	65.189003720234
0	64963	72	65.197861326694
0	64963	72	65.198585517795
0	64963	72	65.203266582327
0	64963	72	65.205231201186
0	64963	72	65.208234451989
0	64963	72	65.219671358195
0	64963	72	65.234695486132
0	64963	72	65.253486670474
0	64963	72	65.26856882279
0	64963	72	65.27088303251
0	64963	72	65.282823166216
0	64963	72	65.293612435301
0	64963	72	65.29419771429
0	64963	72	65.295101086731
0	67777	75	67.879317140744
0	67777	75	67.880696673063
0	67777	75	67.888445096858
0	67777	75	67.891696805563
0	67777	75	67.902179696613
0	67777	75	67.913617650404
0	67777	75	67.915170506259
0	67777	75	67.922853039678
0	68795	76	68.428470885474
0	68795	76	68.459201637702
0	68795	76	68.468141651729
0	68795	76	68.47514190809
0	68795	76	68.481269362539
0	68795	76	68.483920293553
0	68795	76	68.515902843321
0	68795	76	68.519588672717
0	68795	76	68.535504233945
0	68795	76	68.535602378309
0	68795	76	68.537352328791
0	68795	76	68.551917930907
0	68795	76	68.554662566127
0	68795	76	68.567807787108
0	68795	76	68.577915478739
0	68795	76	68.578189899743
0	68795	76	68.592327733038
0	68795	76	68.604924144744
0	68795	76	68.608894954244
0	68795	76	68.617574654064
0	68795	76	68.629601791902
0	68795	76	68.636011527355
0	68795	76	68.647724164304
0	68795	76	68.653280753436
0	68795	76	68.676719449844
0	68795	76	68.67770064507
0	68795	76	68.682792669939
0	68795	76	68.703759032674
0	68795	76	68.716638652425
0	68795	76	68.732751972416
0	68795	76	68.738888014513
0	68795	76	68.739754184457
0	68795	76	68.761128401361
0	68795	76	68.785268565666
0	68795	76	68.791373394116
0	68795	76	68.792341368839
0	68795	76	68.800189739035
0	68795	76	68.808839120129
0	68795	76	68.83227151943
0	68795	76	68.833657387644
0	68795	76	68.835729239467
0	68795	76	68.837471226633
0	68795	76	68.868799521528
0	68795	76	68.870389641696
0	68795	76	68.875376565025
0	71507	79	71.408971116356
0	74348	82	74.394700355103
0	74348	82	74.400810930716
0	75270	83	75.158095936592
0	75270	83	75.187913733165
0	75270	83	75.192995927706
0	75270	83	75.203036439445
0	75270	83	75.212949234503
0	75270	83	75.213941449768
0	75270	83	75.2156780154
0	75270	83	75.216566339227
0	75270	83	75.233468688775
0	75270	83	75.282303678678
0	75270	83	75.306255476572
0	75270	83	75.307970862846
0	75270	83	75.325161555964
0	75270	83	75.345040950512
0	75270	83	75.353615301538
0	75270	83	75.363335410449
0	75270	83	75.393674836173
0	76201	84	75.59546957452
0	76201	84	75.600729882478
0	76201	84	75.601197231495
0	76201	84	75.647600031454
0	76201	84	75.652289244727
0	76201	84	75.688884865912
0	76201	84	75.691690625174
0	76201	84	75.701326552137
0	76201	84	75.741302186904
0	76201	84	75.742529336977
0	76201	84	75.749282895679
0	76201	84	75.74940398813
0	76201	84	75.754123669008
0	76201	84	75.755528426178
0	76201	84	75.770272648426
0	76201	84	75.773192109143
0	76201	84	75.781870727842
0	76201	84	75.784370236008
0	76201	84	75.784700275859
0	76201	84	75.78760301001
0	76201	84	75.795468600929
0	76201	84	75.796173620413
0	76201	84	75.806667042072
0	76201	84	75.812267125805
0	76201	84	75.819463574782
0	76201	84	75.81962086602
0	76201	84	75.827010066219
0	76201	84	75.827346405428
0	76201	84	75.845641826987
0	76201	84	75.85517305237
0	76201	84	75.857880296277
0	76201	84	75.860529645653
0	76201	84	75.861434720354
0	76201	84	75.865390376358
0	76201	84	75.865966305526
0	76201	84	75.872020643342
0	76201	84	75.872986056132
0	76201	84	75.893348998005
0	76201	84	75.894385706371
0	76201	84	75.923444902408
0	76201	84	75.932839922267
0	76201	84	75.93388924974
0	76201	84	75.945292038509
0	76201	84	75.971783921131
0	76201	84	75.979468546905
0	76201	84	75.984597816823
0	76201	84	76.003264221525
0	76201	84	76.005312744196
0	76201	84	76.012902391938
0	76201	84	76.013067024778
0	76201	84	76.018039117641
0	76201	84	76.022450665748
0	76201	84	76.028318353815
0	76201	84	76.032709123671
0	76201	84	76.033984859409
0	76201	84	76.065922478136
0	76201	84	76.069589529674
0	76201	84	76.069928248226
0	76201	84	76.083485433365
0	76201	84	76.102392724909
0	76201	84	76.115401099184
0	76201	84	76.118394383008
0	76201	84	76.124325198981
0	76201	84	76.129842235107
0	76201	84	76.157448279664
0	77210	85	76.591757957312
0	79021	87	78.589979189733
0	81784	90	81.039388253099
0	81784	90	81.081718411062
0	81784	90	81.084692146341
0	81784	90	81.101564329229
0	81784	90	81.129255774057
0	81784	90	81.133540850099
0	81784	90	81.139502569013
0	81784	90	81.142150391746
0	81784	90	81.155570589158
0	81784	90	81.156041581869
0	81784	90	81.161108814008
0	81784	90	81.187007075463
0	81784	90	81.191519463448
0	81784	90	81.20916033737
0	81784	90	81.243866788175
0	81784	90	81.248338187201
0	81784	90	81.25426476138
0	81784	90	81.259623749333
0	81784	90	81.273026508953
0	81784	90	81.285287831075
0	81784	90	81.302579027452
0	81784	90	81.305962488639
0	81784	90	81.311545756532
0	81784	90	81.319635553483
0	81784	90	81.326520692363
0	81784	90	81.332038713579
0	81784	90	81.351276099286
0	81784	90	81.358559875016
0	81784	90	81.38471628434
0	81784	90	81.39567820995
0	81784	90	81.405727543041
0	81784	90	81.408552010161
0	81784	90	81.413344137106
0	81784	90	81.424206170218
0	81784	90	81.435712796147
0	81784	90	81.438475848076
0	81784	90	81.439206364648
0	81784	90	81.442608736844
0	81784	90	81.458795347508
0	81784	90	81.474084736215
0	81784	90	81.477835355646
0	81784	90	81.478510697215
0	81784	90	81.48310097649
0	81784	90	81.528579215009
0	81784	90	81.538796398483
0	81784	90	81.545535832925
0	81784	90	81.561987667196
0	81784	90	81.572169842984
0	85442	94	84.879185947559
0	85442	94	84.88030539297
0	85442	94	84.882896515529
0	85442	94	84.885765606483
0	85442	94	84.888530333648
0	85442	94	84.936827536128
0	85442	94	84.93811792116
0	85442	94	84.941635595014
0	85442	94	84.964372666681
0	85442	94	84.987906014362
0	85442	94	84.999850913797
0	85442	94	85.034579470856
0	87355	96	86.813008784535
0	87355	96	86.817442128495
0	87355	96	86.820100293985
0	87355	96	86.842312435817
0	87355	96	86.872462118539
1	914	1	38
1	914	1	64
1	914	1	19
1	914	1	65
1	914	1	1
1	914	1	55
1	914	1	29
1	914	1	22
1	914	1	50
1	914	1	21
1	914	1	38
1	914	1	49
1	914	1	34
1	914	1	44
1	914	1	8
1	914	1	63
1	914	1	25
1	914	1	30
1	914	1	70
1	914	1	52
1	914	1	2
1	914	1	61
1	914	1	64
1	914	1	3
1	914	1	67
1	914	1	23
1	914	1	27
1	914	1	15
1	914	1	40
1	914	1	45
1	914	1	21
1	914	1	39
1	914	1	22
1	914	1	11
1	914	1	42
1	914	1	75
1	914	1	20
1	914	1	22
1	914	1	1
1	914	1	73
1	914	1	57
1	914	1	4
1	914	1	25
1	4596	5	57
1	4596	5	57
1	7461	8	72
1	8257	9	28
1	8257	9	17
1	8257	9	61
1	8257	9	33
1	8257	9	44
1	8257	9	58
1	8257	9	8
1	8257	9	23
1	8257	9	63
1	8257	9	21
1	8257	9	3
1	8257	9	64
1	8257	9	19
1	8257	9	2
1	8257	9	53
1	8257	9	46
1	8257	9	36
1	8257	9	66
1	8257	9	51
1	8257	9	40
1	8257	9	17
1	8257	9	20
1	8257	9	45
1	8257	9	45
1	8257	9	69
1	8257	9	11
1	8257	9	12
1	8257	9	56
1	8257	9	61
1	8257	9	34
1	8257	9	10
1	8257	9	49
1	8257	9	33
1	8257	9	30
1	8257	9	40
1	8257	9	57
1	8257	9	22
1	8257	9	55
1	8257	9	75
1	8257	9	60
1	8257	9	49
1	8257	9	45
1	8257	9	37
1	8257	9	29
1	8257	9	3
1	8257	9	53
1	8257	9	34
1	8257	9	62
1	8257	9	49
1	8257	9	31
1	8257	9	38
1	8257	9	14
1	8257	9	56
1	8257	9	19
1	8257	9	17
1	8257	9	33
1	8257	9	17
1	8257	9	75
1	8257	9	2
1	8257	9	34
1	8257	9	47
1	8257	9	38
1	11011	12	57
1	11011	12	56
1	11011	12	37
1	11011	12	48
1	11011	12	61
1	11011	12	14
1	11011	12	42
1	11011	12	64
1	11011	12	69
1	11011	12	14
1	11011	12	72
1	11011	12	52
1	11011	12	18
1	11011	12	12
1	11011	12	52
1	11011	12	34
1	11011	12	33
1	11011	12	61
1	11011	12	40
1	11011	12	54
1	11011	12	33
1	11011	12	18
1	11011	12	31
1	11011	12	45
1	11011	12	63
1	11011	12	21
1	11011	12	25
1	11011	12	27
1	11011	12	73
1	11011	12	43
1	11011	12	37
1	11011	12	72
1	11011	12	45
1	11011	12	14
1	11011	12	33
1	11011	12	10
1	11011	12	6
1	11011	12	61
1	11011	12	51
1	11011	12	27
1	11011	12	10
1	11011	12	20
1	11011	12	25
1	11011	12	9
1	11011	12	21
1	11011	12	9
1	11011	12	54
1	12879	14	12
1	12879	14	35
1	12879	14	73
1	12879	14	50
1	12879	14	36
1	12879	14	12
1	12879	14	11
1	12879	14	29
1	12879	14	13
1	12879	14	71
1	16621	18	59
1	16621	18	43
1	16621	18	5
1	16621	18	41
1	16621	18	13
1	16621	18	61
1	16621	18	65
1	16621	18	40
1	16621	18	61
1	16621	18	20
1	16621	18	71
1	16621	18	7
1	16621	18	35
1	16621	18	19
1	16621	18	24
1	16621	18	22
1	16621	18	38
1	16621	18	4
1	16621	18	27
1	16621	18	33
1	16621	18	54
1	16621	18	72
1	16621	18	65
1	16621	18	19
1	16621	18	51
1	16621	18	24
1	16621	18	44
1	16621	18	53
1	16621	18	25
1	16621	18	36
1	16621	18	27
1	16621	18	13
1	16621	18	55
1	16621	18	70
1	16621	18	20
1	16621	18	10
1	16621	18	53
1	16621	18	41
1	16621	18	37
1	16621	18	46
1	16621	18	23
1	16621	18	16
1	16621	18	35
1	16621	18	72
1	16621	18	42
1	16621	18	22
1	16621	18	45
1	16621	18	50
1	16621	18	58
1	16621	18	40
1	16621	18	31
1	16621	18	8
1	16621	18	43
1	16621	18	30
1	16621	18	35
1	16621	18	22
1	16621	18	72
1	16621	18	46
1	16621	18	57
1	16621	18	1
1	16621	18	5
1	16621	18	60
1	21054	23	46
1	21054	23	71
1	21054	23	42
1	21054	23	70
1	21054	23	69
1	21054	23	22
1	21054	23	36
1	21054	23	1
1	21054	23	22
1	23574	26	66
1	23574	26	33
1	24433	27	61
1	24433	27	6
1	24433	27	15
1	24433	27	48
1	24433	27	47
1	24433	27	71
1	24433	27	4
1	24433	27	31
1	24433	27	12
1	24433	27	23
1	24433	27	27
1	24433	27	26
1	24433	27	68
1	24433	27	72
1	25334	28	6
1	25334	28	11
1	25334	28	56
1	25334	28	21
1	25334	28	1
1	25334	28	57
1	25334	28	5
1	25334	28	27
1	25334	28	25
1	25334	28	12
1	25334	28	32
1	25334	28	45
1	25334	28	75
1	25334	28	19
1	25334	28	24
1	25334	28	37
1	25334	28	38
1	25334	28	55
1	25334	28	37
1	25334	28	1
1	25334	28	27
1	25334	28	63
1	25334	28	7
1	25334	28	45
1	25334	28	40
1	25334	28	20
1	25334	28	75
1	25334	28	4
1	25334	28	50
1	25334	28	56
1	25334	28	70
1	25334	28	19
1	25334	28	2
1	25334	28	20
1	25334	28	73
1	25334	28	22
1	25334	28	5
1	25334	28	61
1	25334	28	43
1	25334	28	50
1	25334	28	35
1	25334	28	63
1	25334	28	4
1	25334	28	69
1	25334	28	13
1	25334	28	54
1	25334	28	2
1	25334	28	52
1	25334	28	11
1	25334	28	26
1	25334	28	75
1	25334	28	8
1	25334	28	37
1	25334	28	31
1	25334	28	18
1	25334	28	24
1	25334	28	13
1	25334	28	27
1	25334	28	22
1	25334	28	64
1	25334	28	30
1	25334	28	19
1	25334	28	60
1	25334	28	51
1	25334	28	39
1	25334	28	66