version 2
run General-1-20200904-16:14:37-4684
attr configname General
attr datetime 20200904-16:14:37
attr experiment General
attr inifile FairNetworkConf.ini
attr iterationvars "$nUser=15, $0=1"
attr iterationvarsf nUser=15,1-
attr measurement "$nUser=15, $0=1"
attr network FairNetwork
attr processid 4684
attr repetition 0
attr replication #0
attr resultdir results
attr runnumber 1
attr seedset 0
itervar nUser 15
param **.NUM_USER 15
param **.TIMESLOT 1000ms
param **.packetGenerator.senders[*].lambda 1

vector 0 FairNetwork.user[0] packetDelayStat:vector ETV
attr "" ""
attr source packetDelay
attr title "Packet delay, vector"
vector 1 FairNetwork.user[0] packetBytesStat:vector ETV
attr "" ""
attr source packetBytes
attr title "Packet bytes, vector"
vector 2 FairNetwork.user[0] userThroughputStat:vector ETV
attr "" ""
attr source userThroughput
attr title "User throughput, vector"
vector 3 FairNetwork.user[1] packetDelayStat:vector ETV
attr "" ""
attr source packetDelay
attr title "Packet delay, vector"
vector 4 FairNetwork.user[1] packetBytesStat:vector ETV
attr "" ""
attr source packetBytes
attr title "Packet bytes, vector"
vector 5 FairNetwork.user[1] userThroughputStat:vector ETV
attr "" ""
attr source userThroughput
attr title "User throughput, vector"
vector 6 FairNetwork.user[2] packetDelayStat:vector ETV
attr "" ""
attr source packetDelay
attr title "Packet delay, vector"
vector 7 FairNetwork.user[2] packetBytesStat:vector ETV
attr "" ""
attr source packetBytes
attr title "Packet bytes, vector"
vector 8 FairNetwork.user[2] userThroughputStat:vector ETV
attr "" ""
attr source userThroughput
attr title "User throughput, vector"
vector 9 FairNetwork.user[3] packetDelayStat:vector ETV
attr "" ""
attr source packetDelay
attr title "Packet delay, vector"
vector 10 FairNetwork.user[3] packetBytesStat:vector ETV
attr "" ""
attr source packetBytes
attr title "Packet bytes, vector"
vector 11 FairNetwork.user[3] userThroughputStat:vector ETV
attr "" ""
attr source userThroughput
attr title "User throughput, vector"
vector 12 FairNetwork.user[4] userThroughputStat:vector ETV
attr "" ""
attr source userThroughput
attr title "User throughput, vector"
vector 13 FairNetwork.user[5] packetDelayStat:vector ETV
attr "" ""
attr source packetDelay
attr title "Packet delay, vector"
vector 14 FairNetwork.user[5] packetBytesStat:vector ETV
attr "" ""
attr source packetBytes
attr title "Packet bytes, vector"
vector 15 FairNetwork.user[5] userThroughputStat:vector ETV
attr "" ""
attr source userThroughput
attr title "User throughput, vector"
vector 16 FairNetwork.user[6] userThroughputStat:vector ETV
attr "" ""
attr source userThroughput
attr title "User throughput, vector"
vector 17 FairNetwork.user[7] packetDelayStat:vector ETV
attr "" ""
attr source packetDelay
attr title "Packet delay, vector"
vector 18 FairNetwork.user[7] packetBytesStat:vector ETV
attr "" ""
attr source packetBytes
attr title "Packet bytes, vector"
vector 19 FairNetwork.user[7] userThroughputStat:vector ETV
attr "" ""
attr source userThroughput
attr title "User throughput, vector"
vector 20 FairNetwork.user[8] userThroughputStat:vector ETV
attr "" ""
attr source userThroughput
attr title "User throughput, vector"
vector 21 FairNetwork.user[9] packetDelayStat:vector ETV
attr "" ""
attr source packetDelay
attr title "Packet delay, vector"
vector 22 FairNetwork.user[9] packetBytesStat:vector ETV
attr "" ""
attr source packetBytes
attr title "Packet bytes, vector"
vector 23 FairNetwork.user[9] userThroughputStat:vector ETV
attr "" ""
attr source userThroughput
attr title "User throughput, vector"
vector 24 FairNetwork.user[10] userThroughputStat:vector ETV
attr "" ""
attr source userThroughput
attr title "User throughput, vector"
vector 25 FairNetwork.user[11] packetDelayStat:vector ETV
attr "" ""
attr source packetDelay
attr title "Packet delay, vector"
vector 26 FairNetwork.user[11] packetBytesStat:vector ETV
attr "" ""
attr source packetBytes
attr title "Packet bytes, vector"
vector 27 FairNetwork.user[11] userThroughputStat:vector ETV
attr "" ""
attr source userThroughput
attr title "User throughput, vector"
vector 28 FairNetwork.user[12] packetDelayStat:vector ETV
attr "" ""
attr source packetDelay
attr title "Packet delay, vector"
vector 29 FairNetwork.user[12] packetBytesStat:vector ETV
attr "" ""
attr source packetBytes
attr title "Packet bytes, vector"
vector 30 FairNetwork.user[12] userThroughputStat:vector ETV
attr "" ""
attr source userThroughput
attr title "User throughput, vector"
vector 31 FairNetwork.user[13] userThroughputStat:vector ETV
attr "" ""
attr source userThroughput
attr title "User throughput, vector"
vector 32 FairNetwork.user[14] packetDelayStat:vector ETV
attr "" ""
attr source packetDelay
attr title "Packet delay, vector"
vector 33 FairNetwork.user[14] packetBytesStat:vector ETV
attr "" ""
attr source packetBytes
attr title "Packet bytes, vector"
vector 34 FairNetwork.user[14] userThroughputStat:vector ETV
attr "" ""
attr source userThroughput
attr title "User throughput, vector"
vector 35 FairNetwork.user[10] packetDelayStat:vector ETV
attr "" ""
attr source packetDelay
attr title "Packet delay, vector"
vector 36 FairNetwork.user[10] packetBytesStat:vector ETV
attr "" ""
attr source packetBytes
attr title "Packet bytes, vector"
vector 37 FairNetwork.user[13] packetDelayStat:vector ETV
attr "" ""
attr source packetDelay
attr title "Packet delay, vector"
vector 38 FairNetwork.user[13] packetBytesStat:vector ETV
attr "" ""
attr source packetBytes
attr title "Packet bytes, vector"
vector 39 FairNetwork.user[6] packetDelayStat:vector ETV
attr "" ""
attr source packetDelay
attr title "Packet delay, vector"
vector 40 FairNetwork.user[6] packetBytesStat:vector ETV
attr "" ""
attr source packetBytes
attr title "Packet bytes, vector"
vector 41 FairNetwork.user[8] packetDelayStat:vector ETV
attr "" ""
attr source packetDelay
attr title "Packet delay, vector"
vector 42 FairNetwork.user[8] packetBytesStat:vector ETV
attr "" ""
attr source packetBytes
attr title "Packet bytes, vector"
vector 43 FairNetwork.user[4] packetDelayStat:vector ETV
attr "" ""
attr source packetDelay
attr title "Packet delay, vector"
vector 44 FairNetwork.user[4] packetBytesStat:vector ETV
attr "" ""
attr source packetBytes
attr title "Packet bytes, vector"
0	74	1	0.204125495434
0	132	2	0.30556510695
0	214	3	0.049634348903
0	345	5	0.190030136828
0	415	6	0.266807005357
0	579	8	0.315261669473
0	661	9	0.528060529491
0	792	11	0.098047988618
0	792	11	0.649096475288
0	880	12	0.121041562225
0	983	13	0.082882261561
0	1068	14	0.022234900956
0	1068	14	0.597754097839
0	1138	15	0.669075761818
0	1314	17	0.387166670689
0	1314	17	0.445551339782
0	1518	20	0.072254390761
0	1603	21	0.270296144971
0	1603	21	0.753898249919
0	1670	22	0.62084979672
0	1752	23	0.051953679097
0	1889	25	0.379742478772
0	1965	26	0.627068365459
0	2047	27	0.133752945338
0	2047	27	0.973185798238
0	2120	28	0.634880936322
0	2269	30	0.036626850473
0	2424	32	0.154572230733
0	2424	32	0.228257586198
0	2497	33	0.651833208366
0	2497	33	0.74299423449
0	2576	34	0.127546974404
0	2576	34	0.586795111659
0	2576	34	0.607220700058
0	2704	36	0.340059310965
0	2959	39	0.189889382289
0	3105	41	0.532874269987
0	3105	41	0.684105123652
0	3251	43	0.492560012045
0	3424	45	0.451667796133
0	3704	49	0.606445926991
0	3765	50	0.964736754313
0	3853	51	0.359497197251
0	3996	53	0.126565662731
0	3996	53	0.745495122358
0	4072	54	0.391601241541
0	4221	56	0.875065267551
0	4300	57	0.613251916403
0	4300	57	0.739126325841
0	4379	58	0.338024214179
0	4455	59	0.31659233983
0	4561	60	0.289541464288
0	4561	60	0.444271144788
0	4661	61	0.518706805821
0	4862	64	0.624286327834
0	4941	65	0.20292164774
0	5011	66	0.353148195351
0	5011	66	0.465094355984
0	5072	67	0.175887773092
0	5072	67	0.817582475123
0	5151	68	0.662404138909
0	5151	68	0.868607420939
0	5242	69	0.174149313157
0	5376	71	0.22977670535
0	5376	71	0.838859128533
0	5437	72	0.000115481709
0	5437	72	0.145393509001
0	5437	72	0.985728214613
0	5519	73	0.589376101831
0	5519	73	0.981146912508
0	5601	74	0.465858673319
0	5601	74	0.627995162765
0	5680	75	0.267420064069
0	5680	75	0.518861996144
0	5747	76	0.307872086701
0	5829	77	0.819315037393
0	6075	80	0.941400016115
0	6209	82	0.612486641901
0	6294	83	0.467347687201
0	6394	84	0.424083115332
0	6394	84	0.869601610383
0	6482	85	0.474588531835
0	6558	86	0.900056125094
0	6689	88	0.5737050634
0	6765	89	0.210920747702
0	6765	89	0.273036038168
0	6765	89	0.377597263943
0	7075	93	0.710707063247
0	7172	94	0.611794595696
0	7236	95	0.552960464208
0	7312	96	0.01873024642
0	7312	96	0.254936952503
0	7312	96	0.442363018521
0	7382	97	0.437297529371
0	7382	97	0.575326217799
0	7446	98	0.04825483958
0	7507	99	0.669292875297
0	7607	100	0.281129255301
0	7607	100	0.733231315526
1	74	1	73
1	132	2	13
1	214	3	6
1	345	5	1
1	415	6	29
1	579	8	28
1	661	9	72
1	792	11	18
1	792	11	48
1	880	12	32
1	983	13	24
1	1068	14	63
1	1068	14	33
1	1138	15	11
1	1314	17	69
1	1314	17	16
1	1518	20	40
1	1603	21	20
1	1603	21	38
1	1670	22	45
1	1752	23	61
1	1889	25	30
1	1965	26	16
1	2047	27	50
1	2047	27	57
1	2120	28	2
1	2269	30	32
1	2424	32	35
1	2424	32	27
1	2497	33	66
1	2497	33	51
1	2576	34	42
1	2576	34	71
1	2576	34	54
1	2704	36	35
1	2959	39	41
1	3105	41	64
1	3105	41	23
1	3251	43	57
1	3424	45	29
1	3704	49	5
1	3765	50	8
1	3853	51	67
1	3996	53	8
1	3996	53	43
1	4072	54	25
1	4221	56	61
1	4300	57	50
1	4300	57	46
1	4379	58	54
1	4455	59	30
1	4561	60	3
1	4561	60	34
1	4661	61	43
1	4862	64	52
1	4941	65	63
1	5011	66	19
1	5011	66	24
1	5072	67	33
1	5072	67	17
1	5151	68	5
1	5151	68	71
1	5242	69	29
1	5376	71	29
1	5376	71	36
1	5437	72	65
1	5437	72	55
1	5437	72	70
1	5519	73	57
1	5519	73	74
1	5601	74	39
1	5601	74	47
1	5680	75	15
1	5680	75	36
1	5747	76	53
1	5829	77	42
1	6075	80	36
1	6209	82	68
1	6294	83	20
1	6394	84	55
1	6394	84	33
1	6482	85	34
1	6558	86	35
1	6689	88	34
1	6765	89	9
1	6765	89	61
1	6765	89	29
1	7075	93	11
1	7172	94	44
1	7236	95	62
1	7312	96	45
1	7312	96	68
1	7312	96	64
1	7382	97	28
1	7382	97	61
1	7446	98	42
1	7507	99	63
1	7607	100	69
1	7607	100	1
2	74	1	73
2	132	2	13
2	214	3	6
2	275	4	0
2	345	5	1
2	415	6	29
2	491	7	0
2	579	8	28
2	661	9	72
2	728	10	0
2	792	11	66
2	880	12	32
2	983	13	24
2	1068	14	96
2	1138	15	11
2	1229	16	0
2	1314	17	85
2	1381	18	0
2	1445	19	0
2	1518	20	40
2	1603	21	58
2	1670	22	45
2	1752	23	61
2	1813	24	0
2	1889	25	30
2	1965	26	16
2	2047	27	107
2	2120	28	2
2	2190	29	0
2	2269	30	32
2	2348	31	0
2	2424	32	62
2	2497	33	117
2	2576	34	167
2	2634	35	0
2	2704	36	35
2	2795	37	0
2	2880	38	0
2	2959	39	41
2	3038	40	0
2	3105	41	87
2	3184	42	0
2	3251	43	57
2	3324	44	0
2	3424	45	29
2	3500	46	0
2	3576	47	0
2	3652	48	0
2	3704	49	5
2	3765	50	8
2	3853	51	67
2	3920	52	0
2	3996	53	51
2	4072	54	25
2	4154	55	0
2	4221	56	61
2	4300	57	96
2	4379	58	54
2	4455	59	30
2	4561	60	37
2	4661	61	43
2	4716	62	0
2	4780	63	0
2	4862	64	52
2	4941	65	63
2	5011	66	43
2	5072	67	50
2	5151	68	76
2	5242	69	29
2	5309	70	0
2	5376	71	65
2	5437	72	190
2	5519	73	131
2	5601	74	86
2	5680	75	51
2	5747	76	53
2	5829	77	42
2	5920	78	0
2	5999	79	0
2	6075	80	36
2	6148	81	0
2	6209	82	68
2	6294	83	20
2	6394	84	88
2	6482	85	34
2	6558	86	35
2	6622	87	0
2	6689	88	34
2	6765	89	99
2	6847	90	0
2	6929	91	0
2	6999	92	0
2	7075	93	11
2	7172	94	44
2	7236	95	62
2	7312	96	177
2	7382	97	89
2	7446	98	42
2	7507	99	63
2	7607	100	70
3	75	1	0.460394173488
3	492	7	0.587669312507
3	580	8	0.313544074347
3	793	11	0.119830520328
3	793	11	0.479843268184
3	793	11	0.616951848777
3	793	11	0.6170662364
3	1382	18	0.012006635765
3	1382	18	0.170716232991
3	1446	19	0.140675794912
3	1446	19	0.645818805586
3	1446	19	0.742702678089
3	1519	20	0.019707524355
3	1519	20	0.443684003162
3	1519	20	0.934561160948
3	1671	22	0.406361646037
3	1671	22	0.911814178509
3	1890	25	0.664665630365
3	1966	26	0.890705860089
3	2048	27	0.017882193218
3	2121	28	0.098723621934
3	2121	28	0.474542814592
3	2270	30	0.199354220648
3	2270	30	0.942843911326
3	2349	31	0.384626349544
3	2349	31	0.970629814055
3	2498	33	0.019113203328
3	2498	33	0.279929053267
3	2577	34	0.22688532326
3	2577	34	0.991343575711
3	2635	35	0.11680500471
3	2881	38	0.1237474747
3	2881	38	0.663838524489
3	2960	39	0.512724263692
3	3039	40	0.13137172097
3	3039	40	0.694716952312
3	3106	41	0.980098803298
3	3252	43	0.181120192015
3	3325	44	0.96034697513
3	3425	45	0.453514226137
3	3577	47	0.840346534878
3	3653	48	0.581669323703
3	3854	51	0.131442236417
3	3997	53	0.034689015698
3	3997	53	0.132082254823
3	3997	53	0.508120877238
3	4155	55	0.125857808019
3	4155	55	0.855985513154
3	4301	57	0.03524088506
3	4456	59	0.032610407984
3	4717	62	0.78255453877
3	4781	63	0.015603320178
3	4863	64	0.926723791587
3	4942	65	0.11725950181
3	4942	65	0.157097380965
3	5012	66	0.551166046207
3	5012	66	0.61223666437
3	5012	66	0.798361953328
3	5152	68	0.446263061577
3	5243	69	0.232473678487
3	5243	69	0.335999030643
3	5310	70	0.333370597075
3	5377	71	0.786731904988
3	5438	72	0.673044277221
3	5681	75	0.505585354768
3	5748	76	0.213137686152
3	5748	76	0.974917708707
3	5830	77	0.993050841436
3	5921	78	0.094735959639
3	5921	78	0.473825434044
3	5921	78	0.815794250517
3	6000	79	0.941444755282
3	6076	80	0.781485886961
3	6149	81	0.252177728273
3	6295	83	0.452633999274
3	6395	84	0.867462466758
3	6395	84	0.90223126682
3	6395	84	0.920688844819
3	6483	85	0.480590689401
3	6559	86	0.502344807808
3	6848	90	0.005034139455
3	7000	92	0.924352949443
3	7076	93	0.190841510927
3	7076	93	0.5453691883
3	7173	94	0.270887195159
3	7173	94	0.861720597865
3	7313	96	0.277330411848
3	7313	96	0.353525054907
3	7313	96	0.462476467999
3	7313	96	0.713665323531
3	7383	97	0.049873492974
3	7383	97	0.683316050864
3	7608	100	0.208702736246
3	7608	100	0.55629638776
3	7608	100	0.65741287645
4	75	1	42
4	492	7	70
4	580	8	66
4	793	11	42
4	793	11	5
4	793	11	32
4	793	11	69
4	1382	18	31
4	1382	18	17
4	1446	19	33
4	1446	19	19
4	1446	19	59
4	1519	20	75
4	1519	20	32
4	1519	20	66
4	1671	22	1
4	1671	22	35
4	1890	25	29
4	1966	26	29
4	2048	27	60
4	2121	28	38
4	2121	28	9
4	2270	30	41
4	2270	30	18
4	2349	31	15
4	2349	31	53
4	2498	33	55
4	2498	33	38
4	2577	34	16
4	2577	34	60
4	2635	35	41
4	2881	38	17
4	2881	38	45
4	2960	39	55
4	3039	40	22
4	3039	40	73
4	3106	41	19
4	3252	43	21
4	3325	44	58
4	3425	45	45
4	3577	47	19
4	3653	48	66
4	3854	51	42
4	3997	53	44
4	3997	53	47
4	3997	53	66
4	4155	55	18
4	4155	55	7
4	4301	57	13
4	4456	59	2
4	4717	62	68
4	4781	63	25
4	4863	64	63
4	4942	65	71
4	4942	65	24
4	5012	66	23
4	5012	66	58
4	5012	66	66
4	5152	68	63
4	5243	69	37
4	5243	69	28
4	5310	70	5
4	5377	71	3
4	5438	72	42
4	5681	75	20
4	5748	76	65
4	5748	76	23
4	5830	77	28
4	5921	78	58
4	5921	78	34
4	5921	78	39
4	6000	79	16
4	6076	80	69
4	6149	81	4
4	6295	83	38
4	6395	84	44
4	6395	84	31
4	6395	84	18
4	6483	85	11
4	6559	86	26
4	6848	90	63
4	7000	92	35
4	7076	93	38
4	7076	93	16
4	7173	94	70
4	7173	94	50
4	7313	96	58
4	7313	96	68
4	7313	96	28
4	7313	96	66
4	7383	97	38
4	7383	97	44
4	7608	100	51
4	7608	100	24
4	7608	100	50
5	75	1	42
5	133	2	0
5	215	3	0
5	276	4	0
5	346	5	0
5	416	6	0
5	492	7	70
5	580	8	66
5	662	9	0
5	729	10	0
5	793	11	148
5	881	12	0
5	984	13	0
5	1069	14	0
5	1139	15	0
5	1230	16	0
5	1315	17	0
5	1382	18	48
5	1446	19	111
5	1519	20	173
5	1604	21	0
5	1671	22	36
5	1753	23	0
5	1814	24	0
5	1890	25	29
5	1966	26	29
5	2048	27	60
5	2121	28	47
5	2191	29	0
5	2270	30	59
5	2349	31	68
5	2425	32	0
5	2498	33	93
5	2577	34	76
5	2635	35	41
5	2705	36	0
5	2796	37	0
5	2881	38	62
5	2960	39	55
5	3039	40	95
5	3106	41	19
5	3185	42	0
5	3252	43	21
5	3325	44	58
5	3425	45	45
5	3501	46	0
5	3577	47	19
5	3653	48	66
5	3705	49	0
5	3766	50	0
5	3854	51	42
5	3921	52	0
5	3997	53	157
5	4073	54	0
5	4155	55	25
5	4222	56	0
5	4301	57	13
5	4380	58	0
5	4456	59	2
5	4562	60	0
5	4662	61	0
5	4717	62	68
5	4781	63	25
5	4863	64	63
5	4942	65	95
5	5012	66	147
5	5073	67	0
5	5152	68	63
5	5243	69	65
5	5310	70	5
5	5377	71	3
5	5438	72	42
5	5520	73	0
5	5602	74	0
5	5681	75	20
5	5748	76	88
5	5830	77	28
5	5921	78	131
5	6000	79	16
5	6076	80	69
5	6149	81	4
5	6210	82	0
5	6295	83	38
5	6395	84	93
5	6483	85	11
5	6559	86	26
5	6623	87	0
5	6690	88	0
5	6766	89	0
5	6848	90	63
5	6930	91	0
5	7000	92	35
5	7076	93	54
5	7173	94	120
5	7237	95	0
5	7313	96	220
5	7383	97	82
5	7447	98	0
5	7508	99	0
5	7608	100	125
6	76	1	0.19637188925
6	76	1	0.222640126097
6	76	1	0.427308010373
6	277	4	0.514853628794
6	347	5	0.717095704894
6	581	8	0.194251014094
6	581	8	0.765751332217
6	663	9	0.531149708956
6	730	10	0.030618708202
6	730	10	0.198359099392
6	730	10	0.599336522716
6	730	10	0.985788191738
6	794	11	0.80164741347
6	882	12	0.601458476897
6	985	13	0.151832191424
6	985	13	0.508013938829
6	985	13	0.635791111755
6	1070	14	0.177528206939
6	1070	14	0.48790217256
6	1140	15	0.175849151221
6	1231	16	0.20527689308
6	1383	18	0.500281798959
6	1447	19	0.747082890449
6	1520	20	0.453607104593
6	1520	20	0.598147378712
6	1605	21	0.042654494916
6	1605	21	0.763333456234
6	1672	22	0.158838264493
6	1754	23	0.954958147532
6	1815	24	0.682869833405
6	1891	25	0.144192540641
6	1967	26	0.845115010595
6	2122	28	0.131020750022
6	2122	28	0.921135579425
6	2192	29	0.449333966718
6	2271	30	0.926253841491
6	2350	31	0.051798454771
6	2426	32	0.774021733929
6	2426	32	0.857018059435
6	2636	35	0.279642453603
6	2706	36	0.156007942758
6	2706	36	0.223523160412
6	2706	36	0.575947664398
6	2797	37	0.032654299017
6	2797	37	0.134167692708
6	2797	37	0.257684623803
6	2797	37	0.816514799934
6	2882	38	0.014300574961
6	2882	38	0.69609201258
6	2882	38	0.832094996207
6	2961	39	0.106113648321
6	3040	40	0.015745017955
6	3040	40	0.271943931404
6	3107	41	0.651820231641
6	3107	41	0.764928108131
6	3186	42	0.19299312754
6	3253	43	0.083027455539
6	3253	43	0.944139119034
6	3326	44	0.468801258751
6	3326	44	0.652511756998
6	3426	45	0.154734097892
6	3426	45	0.38005906046
6	3426	45	0.838088853436
6	3502	46	0.522355373657
6	3578	47	0.499573691886
6	3654	48	0.43748757946
6	3706	49	0.777640094803
6	3767	50	0.202169973993
6	3855	51	0.498494127155
6	3922	52	0.410638392205
6	3998	53	0.921423155345
6	4074	54	0.972015838493
6	4156	55	0.39389512003
6	4563	60	0.699675452563
6	4663	61	0.366991408062
6	4663	61	0.527823267773
6	4663	61	0.704916838193
6	4663	61	0.832164925578
6	4718	62	0.160507642186
6	4864	64	0.248063959788
6	5153	68	0.196018638329
6	5153	68	0.908401401679
6	5244	69	0.25788736208
6	5244	69	0.502854729679
6	5378	71	0.054966057198
6	5749	76	0.054336748391
6	5831	77	0.257602562715
6	5831	77	0.636373376795
6	5922	78	0.120857472775
6	5922	78	0.420252098213
6	6001	79	0.563034639095
6	6150	81	0.332607804986
6	6150	81	0.906634644045
6	6211	82	0.896154421579
6	6296	83	0.397545698175
6	6396	84	0.76672993318
6	6484	85	0.679267976739
6	6484	85	0.99971191049
6	6691	88	0.605742312014
6	6767	89	0.005262213771
6	6849	90	0.21954315877
6	7001	92	0.451128806315
6	7001	92	0.536790099586
6	7238	95	0.036630294546
6	7238	95	0.492876821404
6	7384	97	0.305676315096
6	7509	99	0.402870181135
6	7609	100	0.157637791992
6	7609	100	0.678976902879
7	76	1	23
7	76	1	7
7	76	1	16
7	277	4	58
7	347	5	46
7	581	8	32
7	581	8	23
7	663	9	69
7	730	10	2
7	730	10	8
7	730	10	45
7	730	10	40
7	794	11	18
7	882	12	42
7	985	13	4
7	985	13	11
7	985	13	57
7	1070	14	7
7	1070	14	64
7	1140	15	39
7	1231	16	42
7	1383	18	58
7	1447	19	31
7	1520	20	50
7	1520	20	18
7	1605	21	62
7	1605	21	33
7	1672	22	6
7	1754	23	39
7	1815	24	3
7	1891	25	45
7	1967	26	55
7	2122	28	57
7	2122	28	14
7	2192	29	28
7	2271	30	51
7	2350	31	50
7	2426	32	9
7	2426	32	61
7	2636	35	52
7	2706	36	27
7	2706	36	64
7	2706	36	28
7	2797	37	3
7	2797	37	75
7	2797	37	58
7	2797	37	57
7	2882	38	73
7	2882	38	50
7	2882	38	50
7	2961	39	65
7	3040	40	16
7	3040	40	21
7	3107	41	28
7	3107	41	37
7	3186	42	36
7	3253	43	14
7	3253	43	52
7	3326	44	22
7	3326	44	8
7	3426	45	26
7	3426	45	18
7	3426	45	13
7	3502	46	4
7	3578	47	75
7	3654	48	62
7	3706	49	60
7	3767	50	34
7	3855	51	48
7	3922	52	14
7	3998	53	7
7	4074	54	46
7	4156	55	66
7	4563	60	47
7	4663	61	15
7	4663	61	63
7	4663	61	36
7	4663	61	44
7	4718	62	25
7	4864	64	68
7	5153	68	19
7	5153	68	11
7	5244	69	51
7	5244	69	57
7	5378	71	2
7	5749	76	5
7	5831	77	67
7	5831	77	41
7	5922	78	48
7	5922	78	53
7	6001	79	68
7	6150	81	59
7	6150	81	67
7	6211	82	24
7	6296	83	22
7	6396	84	40
7	6484	85	36
7	6484	85	62
7	6691	88	15
7	6767	89	25
7	6849	90	56
7	7001	92	57
7	7001	92	22
7	7238	95	59
7	7238	95	71
7	7384	97	67
7	7509	99	35
7	7609	100	21
7	7609	100	67
8	76	1	46
8	134	2	0
8	216	3	0
8	277	4	58
8	347	5	46
8	417	6	0
8	493	7	0
8	581	8	55
8	663	9	69
8	730	10	95
8	794	11	18
8	882	12	42
8	985	13	72
8	1070	14	71
8	1140	15	39
8	1231	16	42
8	1316	17	0
8	1383	18	58
8	1447	19	31
8	1520	20	68
8	1605	21	95
8	1672	22	6
8	1754	23	39
8	1815	24	3
8	1891	25	45
8	1967	26	55
8	2049	27	0
8	2122	28	71
8	2192	29	28
8	2271	30	51
8	2350	31	50
8	2426	32	70
8	2499	33	0
8	2578	34	0
8	2636	35	52
8	2706	36	119
8	2797	37	193
8	2882	38	173
8	2961	39	65
8	3040	40	37
8	3107	41	65
8	3186	42	36
8	3253	43	66
8	3326	44	30
8	3426	45	57
8	3502	46	4
8	3578	47	75
8	3654	48	62
8	3706	49	60
8	3767	50	34
8	3855	51	48
8	3922	52	14
8	3998	53	7
8	4074	54	46
8	4156	55	66
8	4223	56	0
8	4302	57	0
8	4381	58	0
8	4457	59	0
8	4563	60	47
8	4663	61	158
8	4718	62	25
8	4782	63	0
8	4864	64	68
8	4943	65	0
8	5013	66	0
8	5074	67	0
8	5153	68	30
8	5244	69	108
8	5311	70	0
8	5378	71	2
8	5439	72	0
8	5521	73	0
8	5603	74	0
8	5682	75	0
8	5749	76	5
8	5831	77	108
8	5922	78	101
8	6001	79	68
8	6077	80	0
8	6150	81	126
8	6211	82	24
8	6296	83	22
8	6396	84	40
8	6484	85	98
8	6560	86	0
8	6624	87	0
8	6691	88	15
8	6767	89	25
8	6849	90	56
8	6931	91	0
8	7001	92	79
8	7077	93	0
8	7174	94	0
8	7238	95	130
8	7314	96	0
8	7384	97	67
8	7448	98	0
8	7509	99	35
8	7609	100	88
9	77	1	0.126367171143
9	77	1	0.199717609107
9	217	3	0.894859325901
9	278	4	0.06259629705
9	348	5	0.589486627262
9	348	5	0.718830888753
9	418	6	0.032076546673
9	418	6	0.874446329904
9	664	9	0.223060025603
9	664	9	0.797645700414
9	883	12	0.094098934734
9	883	12	0.192319992171
9	883	12	0.24515890985
9	883	12	0.530029340982
9	883	12	0.762267723451
9	883	12	0.803746952186
9	883	12	0.937947501196
9	883	12	0.956873483339
9	986	13	0.512833252679
9	1071	14	0.138549331978
9	1071	14	0.295636156724
9	1071	14	0.325967756464
9	1141	15	0.528210466383
9	1232	16	0.924588950175
9	1317	17	0.307997251409
9	1317	17	0.634402527896
9	1317	17	0.877209407011
9	1384	18	0.871188411387
9	1448	19	0.064863170784
9	1448	19	0.743389599568
9	1521	20	0.171158416841
9	1755	23	0.70156613488
9	1755	23	0.725840265317
9	1816	24	0.249873685326
9	1892	25	0.431494099717
9	2193	29	0.495177314734
9	2193	29	0.795272708076
9	2272	30	0.444093095371
9	2272	30	0.980409526959
9	2351	31	0.30599441868
9	2351	31	0.639406463206
9	2427	32	0.940191329616
9	2500	33	0.758834447994
9	2579	34	0.294817460886
9	2579	34	0.875446503485
9	2637	35	0.196462539264
9	2637	35	0.802712585115
9	2637	35	0.973344027151
9	2707	36	0.409775782692
9	2883	38	0.992340556818
9	2962	39	0.476781063743
9	3108	41	0.111733773272
9	3108	41	0.40958105922
9	3108	41	0.775388335717
9	3187	42	0.860759150341
9	3327	44	0.134248017969
9	3327	44	0.625224050006
9	3503	46	0.86690214569
9	3655	48	0.091187385988
9	3655	48	0.112017332857
9	3923	52	0.207688844567
9	3923	52	0.361676422174
9	3999	53	0.091776737411
9	4075	54	0.698280450634
9	4224	56	0.366944972674
9	4382	58	0.71183373585
9	4564	60	0.333502166629
9	4564	60	0.842647463161
9	4664	61	0.209080191969
9	4664	61	0.305830120229
9	4664	61	0.85869655368
9	4719	62	0.67512464941
9	4783	63	0.615509303797
9	4865	64	0.068395742016
9	4944	65	0.252310543074
9	5014	66	0.00206428798
9	5075	67	0.274977700535
9	5075	67	0.529940278727
9	5075	67	0.553329249219
9	5154	68	0.37376893725
9	5154	68	0.895520561419
9	5245	69	0.546472810327
9	5312	70	0.913592078359
9	5379	71	0.220976800389
9	5379	71	0.534640942736
9	5440	72	0.280332759204
9	5522	73	0.096057851936
9	5522	73	0.707968695657
9	5522	73	0.935314224015
9	5604	74	0.035807679664
9	5750	76	0.065873877518
9	5923	78	0.096631691727
9	5923	78	0.979132057222
9	6078	80	0.048130128901
9	6151	81	0.714770039711
9	6212	82	0.047555989228
9	6297	83	0.253252825389
9	6297	83	0.721856999358
9	6397	84	0.338869175292
9	6397	84	0.568798623944
9	6397	84	0.646976527954
9	6561	86	0.618577208276
9	6561	86	0.68447110272
9	6561	86	0.909339533651
9	6625	87	0.896958423465
9	6692	88	0.057848446423
9	6768	89	0.966577792401
9	6850	90	0.126016950329
9	6850	90	0.786862556053
9	6932	91	0.085912817169
9	6932	91	0.535606051909
9	7002	92	0.635962044821
9	7078	93	0.406033198031
9	7175	94	0.680167312009
9	7239	95	0.30680409218
9	7315	96	0.695546205196
9	7385	97	0.520831439054
9	7510	99	0.868683120032
9	7610	100	0.31992703478
9	7610	100	0.700140467466
10	77	1	20
10	77	1	43
10	217	3	70
10	278	4	63
10	348	5	47
10	348	5	50
10	418	6	9
10	418	6	67
10	664	9	18
10	664	9	25
10	883	12	68
10	883	12	66
10	883	12	69
10	883	12	37
10	883	12	56
10	883	12	11
10	883	12	63
10	883	12	6
10	986	13	74
10	1071	14	71
10	1071	14	15
10	1071	14	6
10	1141	15	14
10	1232	16	9
10	1317	17	10
10	1317	17	65
10	1317	17	19
10	1384	18	11
10	1448	19	16
10	1448	19	59
10	1521	20	60
10	1755	23	51
10	1755	23	4
10	1816	24	29
10	1892	25	4
10	2193	29	22
10	2193	29	32
10	2272	30	56
10	2272	30	12
10	2351	31	30
10	2351	31	26
10	2427	32	23
10	2500	33	68
10	2579	34	64
10	2579	34	53
10	2637	35	39
10	2637	35	36
10	2637	35	27
10	2707	36	12
10	2883	38	10
10	2962	39	33
10	3108	41	45
10	3108	41	47
10	3108	41	53
10	3187	42	29
10	3327	44	14
10	3327	44	35
10	3503	46	70
10	3655	48	52
10	3655	48	54
10	3923	52	60
10	3923	52	8
10	3999	53	28
10	4075	54	12
10	4224	56	52
10	4382	58	17
10	4564	60	48
10	4564	60	54
10	4664	61	15
10	4664	61	71
10	4664	61	20
10	4719	62	2
10	4783	63	11
10	4865	64	36
10	4944	65	21
10	5014	66	69
10	5075	67	37
10	5075	67	73
10	5075	67	15
10	5154	68	23
10	5154	68	6
10	5245	69	29
10	5312	70	11
10	5379	71	24
10	5379	71	24
10	5440	72	20
10	5522	73	33
10	5522	73	67
10	5522	73	51
10	5604	74	6
10	5750	76	55
10	5923	78	17
10	5923	78	67
10	6078	80	47
10	6151	81	74
10	6212	82	54
10	6297	83	3
10	6297	83	74
10	6397	84	21
10	6397	84	38
10	6397	84	28
10	6561	86	28
10	6561	86	68
10	6561	86	32
10	6625	87	24
10	6692	88	20
10	6768	89	60
10	6850	90	44
10	6850	90	23
10	6932	91	22
10	6932	91	62
10	7002	92	74
10	7078	93	71
10	7175	94	67
10	7239	95	67
10	7315	96	61
10	7385	97	63
10	7510	99	11
10	7610	100	16
10	7610	100	16
11	77	1	63
11	135	2	0
11	217	3	70
11	278	4	63
11	348	5	97
11	418	6	76
11	494	7	0
11	582	8	0
11	664	9	43
11	731	10	0
11	795	11	0
11	883	12	376
11	986	13	74
11	1071	14	92
11	1141	15	14
11	1232	16	9
11	1317	17	94
11	1384	18	11
11	1448	19	75
11	1521	20	60
11	1606	21	0
11	1673	22	0
11	1755	23	55
11	1816	24	29
11	1892	25	4
11	1968	26	0
11	2050	27	0
11	2123	28	0
11	2193	29	54
11	2272	30	68
11	2351	31	56
11	2427	32	23
11	2500	33	68
11	2579	34	117
11	2637	35	102
11	2707	36	12
11	2798	37	0
11	2883	38	10
11	2962	39	33
11	3041	40	0
11	3108	41	145
11	3187	42	29
11	3254	43	0
11	3327	44	49
11	3427	45	0
11	3503	46	70
11	3579	47	0
11	3655	48	106
11	3707	49	0
11	3768	50	0
11	3856	51	0
11	3923	52	68
11	3999	53	28
11	4075	54	12
11	4157	55	0
11	4224	56	52
11	4303	57	0
11	4382	58	17
11	4458	59	0
11	4564	60	102
11	4664	61	106
11	4719	62	2
11	4783	63	11
11	4865	64	36
11	4944	65	21
11	5014	66	69
11	5075	67	125
11	5154	68	29
11	5245	69	29
11	5312	70	11
11	5379	71	48
11	5440	72	20
11	5522	73	151
11	5604	74	6
11	5683	75	0
11	5750	76	55
11	5832	77	0
11	5923	78	84
11	6002	79	0
11	6078	80	47
11	6151	81	74
11	6212	82	54
11	6297	83	77
11	6397	84	87
11	6485	85	0
11	6561	86	128
11	6625	87	24
11	6692	88	20
11	6768	89	60
11	6850	90	67
11	6932	91	84
11	7002	92	74
11	7078	93	71
11	7175	94	67
11	7239	95	67
11	7315	96	61
11	7385	97	63
11	7449	98	0
11	7510	99	11
11	7610	100	32
12	78	1	0
12	136	2	0
12	218	3	0
12	279	4	41
12	349	5	0
12	419	6	20
12	495	7	128
12	583	8	0
12	665	9	0
12	732	10	0
12	796	11	32
12	884	12	0
12	987	13	67
12	1072	14	57
12	1142	15	23
12	1233	16	35
12	1318	17	68
12	1385	18	0
12	1449	19	0
12	1522	20	0
12	1607	21	96
12	1674	22	0
12	1756	23	82
12	1817	24	0
12	1893	25	74
12	1969	26	5
12	2051	27	67
12	2124	28	90
12	2194	29	114
12	2273	30	0
12	2352	31	61
12	2428	32	70
12	2501	33	0
12	2580	34	0
12	2638	35	0
12	2708	36	33
12	2799	37	119
12	2884	38	68
12	2963	39	0
12	3042	40	96
12	3109	41	18
12	3188	42	148
12	3255	43	56
12	3328	44	0
12	3428	45	0
12	3504	46	10
12	3580	47	0
12	3656	48	136
12	3708	49	0
12	3769	50	0
12	3857	51	37
12	3924	52	0
12	4000	53	64
12	4076	54	0
12	4158	55	0
12	4225	56	32
12	4304	57	0
12	4383	58	97
12	4459	59	146
12	4565	60	71
12	4665	61	42
12	4720	62	0
12	4784	63	49
12	4866	64	72
12	4945	65	0
12	5015	66	76
12	5076	67	0
12	5155	68	0
12	5246	69	27
12	5313	70	35
12	5380	71	0
12	5441	72	56
12	5523	73	0
12	5605	74	0
12	5684	75	53
12	5751	76	68
12	5833	77	176
12	5924	78	101
12	6003	79	51
12	6079	80	73
12	6152	81	75
12	6213	82	49
12	6298	83	74
12	6398	84	71
12	6486	85	48
12	6562	86	59
12	6626	87	0
12	6693	88	133
12	6769	89	117
12	6851	90	39
12	6933	91	118
12	7003	92	7
12	7079	93	114
12	7176	94	95
12	7240	95	77
12	7316	96	0
12	7386	97	0
12	7450	98	69
12	7511	99	0
12	7611	100	6
13	79	1	0.692219048687
13	79	1	0.748980022308
13	219	3	0.646349190735
13	350	5	0.182829782701
13	350	5	0.634972897376
13	350	5	0.866550861087
13	584	8	0.674315807486
13	885	12	0.025316749694
13	885	12	0.119430782689
13	885	12	0.789664864739
13	988	13	0.079226743108
13	1073	14	0.573825370639
13	1143	15	0.121784889647
13	1234	16	0.684615403102
13	1319	17	0.287162633732
13	1319	17	0.953936660207
13	1386	18	0.935047996024
13	1675	22	0.036306689287
13	1675	22	0.244218369455
13	1818	24	0.300390927765
13	1818	24	0.38457858845
13	1894	25	0.252113668284
13	2052	27	0.911020968662
13	2125	28	0.199147170496
13	2195	29	0.166859609741
13	2195	29	0.339202952402
13	2195	29	0.616988038298
13	2353	31	0.721356064663
13	2502	33	0.163746313228
13	2502	33	0.48407068245
13	2502	33	0.601617108618
13	2581	34	0.273753256565
13	2581	34	0.400559155496
13	2581	34	0.93539579181
13	2639	35	0.922662785849
13	2800	37	0.819722724716
13	2885	38	0.087085535611
13	2885	38	0.828741024043
13	2964	39	0.219971063318
13	3043	40	0.542429486956
13	3110	41	0.626315744026
13	3189	42	0.00102845321
13	3189	42	0.310028305622
13	3256	43	0.260815860028
13	3256	43	0.553293681429
13	3256	43	0.651306849522
13	3256	43	0.986340358747
13	3429	45	0.112077185868
13	3429	45	0.50892543816
13	3581	47	0.16368393605