version 2
run General-1-20200904-18:26:57-9740
attr configname General
attr datetime 20200904-18:26:57
attr experiment General
attr inifile FairNetworkConf.ini
attr iterationvars "$nUser=3, $0=1"
attr iterationvarsf nUser=3,1-
attr measurement "$nUser=3, $0=1"
attr network FairNetwork
attr processid 9740
attr repetition 1
attr replication #1
attr resultdir results
attr runnumber 1
attr seedset 1
itervar nUser 3
param **.NUM_USER 3
param **.TIMESLOT 1000ms
param **.packetGenerator.senders[*].lambda 1

vector 0 FairNetwork.user[0] packetDelayStat:vector ETV
attr "" ""
attr source packetDelay
attr title "Packet delay, vector"
vector 1 FairNetwork.user[0] packetBytesStat:vector ETV
attr "" ""
attr source packetBytes
attr title "Packet bytes, vector"
vector 2 FairNetwork.user[0] userThroughputStat:vector ETV
attr "" ""
attr source userThroughput
attr title "User throughput, vector"
vector 3 FairNetwork.user[1] packetDelayStat:vector ETV
attr "" ""
attr source packetDelay
attr title "Packet delay, vector"
vector 4 FairNetwork.user[1] packetBytesStat:vector ETV
attr "" ""
attr source packetBytes
attr title "Packet bytes, vector"
vector 5 FairNetwork.user[1] userThroughputStat:vector ETV
attr "" ""
attr source userThroughput
attr title "User throughput, vector"
vector 6 FairNetwork.user[2] userThroughputStat:vector ETV
attr "" ""
attr source userThroughput
attr title "User throughput, vector"
vector 7 FairNetwork.user[2] packetDelayStat:vector ETV
attr "" ""
attr source packetDelay
attr title "Packet delay, vector"
vector 8 FairNetwork.user[2] packetBytesStat:vector ETV
attr "" ""
attr source packetBytes
attr title "Packet bytes, vector"
0	11	1	0.833881424309
0	21	2	0.123226363044
0	37	3	0.778626186656
0	37	3	0.951624349283
0	92	7	0.174784057866
0	92	7	0.545632295333
0	149	10	0.09292252015
0	149	10	0.298813579057
0	149	10	0.826178809511
0	165	11	0.056277582565
0	181	12	0.744699581901
0	200	13	0.191085017449
0	213	14	0.283897568865
0	213	14	0.784542593572
0	232	15	0.249409067164
0	254	16	0.442614977865
0	254	16	0.732175132879
0	270	17	0.371787526614
0	286	18	0.228347607239
0	286	18	0.363363987483
0	296	19	0.361328412814
0	312	20	0.504415185294
0	334	21	0.044209741606
0	334	21	0.539954638364
0	356	22	0.100333962148
0	356	22	0.398965483974
0	356	22	0.585704351009
0	372	23	0.334685765461
0	372	23	0.550791867738
0	405	26	0.480643705508
0	430	27	0.321832204104
0	430	27	0.676519384608
0	468	29	0.118439160643
0	468	29	0.575251813587
0	484	30	0.418367654806
0	503	31	0.922536599848
0	516	32	0.75919415616
0	538	33	0.996975251011
0	554	34	0.571736690496
0	612	38	0.683850659741
0	640	39	0.030407349191
0	640	39	0.516547368798
0	640	39	0.655778875709
0	684	41	0.080338529133
0	684	41	0.121390474998
0	684	41	0.204885028696
0	710	43	0.432732197009
0	752	46	0.699326911973
0	762	47	0.030807504041
0	787	48	0.126927216465
0	787	48	0.152061935456
0	787	48	0.204228286863
0	803	49	0.224904753309
0	819	50	0.656001629462
0	870	53	0.018487857651
0	870	53	0.20574884411
0	926	58	0.734150600109
0	939	59	0.714503933101
0	949	60	0.000827626882
0	969	62	0.638779872925
0	994	63	0.320068592728
0	994	63	0.467979535633
0	1013	64	0.09479407559
0	1013	64	0.343925904962
0	1032	65	0.180424912362
0	1093	69	0.325490241753
0	1106	70	0.181066404081
0	1119	71	0.750070199754
0	1142	73	0.925428561502
0	1190	76	0.372558547156
0	1190	76	0.9887645062
0	1212	77	0.138724272612
0	1212	77	0.93221472872
0	1253	79	0.58849790687
0	1307	82	0.453566800914
0	1372	87	0.140294773787
0	1391	88	0.80624844815
0	1404	89	0.130783684351
0	1404	89	0.793130729176
0	1417	90	0.799175071949
0	1436	91	0.121802475094
0	1458	92	0.449995902954
0	1471	93	0.458596404355
0	1471	93	0.516513104244
0	1490	94	0.450267637485
0	1500	95	0.315084716881
0	1519	96	0.76249569726
0	1519	96	0.776002461877
0	1541	97	0.242694145902
0	1585	99	0.272299559905
0	1607	100	0.681876855928
0	1607	100	0.909575593699
1	11	1	38
1	21	2	5
1	37	3	49
1	37	3	25
1	92	7	53
1	92	7	53
1	149	10	50
1	149	10	22
1	149	10	52
1	165	11	75
1	181	12	34
1	200	13	9
1	213	14	10
1	213	14	72
1	232	15	56
1	254	16	6
1	254	16	12
1	270	17	45
1	286	18	47
1	286	18	44
1	296	19	16
1	312	20	33
1	334	21	39
1	334	21	6
1	356	22	60
1	356	22	16
1	356	22	20
1	372	23	40
1	372	23	48
1	405	26	34
1	430	27	32
1	430	27	44
1	468	29	18
1	468	29	30
1	484	30	37
1	503	31	22
1	516	32	34
1	538	33	59
1	554	34	22
1	612	38	32
1	640	39	20
1	640	39	3
1	640	39	57
1	684	41	56
1	684	41	23
1	684	41	15
1	710	43	42
1	752	46	68
1	762	47	38
1	787	48	10
1	787	48	72
1	787	48	35
1	803	49	33
1	819	50	56
1	870	53	48
1	870	53	46
1	926	58	68
1	939	59	14
1	949	60	32
1	969	62	44
1	994	63	32
1	994	63	52
1	1013	64	25
1	1013	64	46
1	1032	65	54
1	1093	69	3
1	1106	70	43
1	1119	71	56
1	1142	73	24
1	1190	76	56
1	1190	76	9
1	1212	77	48
1	1212	77	32
1	1253	79	38
1	1307	82	3
1	1372	87	7
1	1391	88	46
1	1404	89	67
1	1404	89	22
1	1417	90	45
1	1436	91	34
1	1458	92	4
1	1471	93	37
1	1471	93	20
1	1490	94	65
1	1500	95	71
1	1519	96	7
1	1519	96	49
1	1541	97	11
1	1585	99	22
1	1607	100	27
1	1607	100	70
2	11	1	38
2	21	2	5
2	37	3	74
2	44	4	0
2	57	5	0
2	70	6	0
2	92	7	106
2	108	8	0
2	118	9	0
2	149	10	124
2	165	11	75
2	181	12	34
2	200	13	9
2	213	14	82
2	232	15	56
2	254	16	18
2	270	17	45
2	286	18	91
2	296	19	16
2	312	20	33
2	334	21	45
2	356	22	96
2	372	23	88
2	379	24	0
2	389	25	0
2	405	26	34
2	430	27	76
2	449	28	0
2	468	29	48
2	484	30	37
2	503	31	22
2	516	32	34
2	538	33	59
2	554	34	22
2	570	35	0
2	583	36	0
2	593	37	0
2	612	38	32
2	640	39	80
2	662	40	0
2	684	41	94
2	697	42	0
2	710	43	42
2	729	44	0
2	736	45	0
2	752	46	68
2	762	47	38
2	787	48	117
2	803	49	33
2	819	50	56
2	838	51	0
2	854	52	0
2	870	53	94
2	877	54	0
2	887	55	0
2	903	56	0
2	913	57	0
2	926	58	68
2	939	59	14
2	949	60	32
2	956	61	0
2	969	62	44
2	994	63	84
2	1013	64	71
2	1032	65	54
2	1051	66	0
2	1064	67	0
2	1083	68	0
2	1093	69	3
2	1106	70	43
2	1119	71	56
2	1129	72	0
2	1142	73	24
2	1161	74	0
2	1171	75	0
2	1190	76	65
2	1212	77	80
2	1225	78	0
2	1253	79	38
2	1266	80	0
2	1279	81	0
2	1307	82	3
2	1326	83	0
2	1342	84	0
2	1349	85	0
2	1359	86	0
2	1372	87	7
2	1391	88	46
2	1404	89	89
2	1417	90	45
2	1436	91	34
2	1458	92	4
2	1471	93	57
2	1490	94	65
2	1500	95	71
2	1519	96	56
2	1541	97	11
2	1566	98	0
2	1585	99	22
2	1607	100	97
3	12	1	0.775601169994
3	58	5	0.088777278485
3	71	6	0.03951814707
3	71	6	0.689760636369
3	93	7	0.687831183583
3	109	8	0.74549611207
3	109	8	0.843476889888
3	150	10	0.094857612235
3	166	11	0.076588964483
3	166	11	0.689774216245
3	201	13	0.010719451578
3	201	13	0.784794502023
3	233	15	0.567264521665
3	233	15	0.954123741319
3	255	16	0.864369802213
3	271	17	0.478656987218
3	313	20	0.19729332891
3	313	20	0.534934690044
3	335	21	0.210039264839
3	357	22	0.708182386805
3	431	27	0.545333643272
3	431	27	0.624508077308
3	431	27	0.843419938246
3	450	28	0.036571141329
3	450	28	0.403203374206
3	450	28	0.509478528251
3	450	28	0.928954123683
3	469	29	0.624806188809
3	485	30	0.38622594322
3	504	31	0.766634885507
3	539	33	0.2738870529
3	555	34	0.441570853501
3	555	34	0.525938490992
3	571	35	0.645531839313
3	571	35	0.710425870721
3	584	36	0.577368892669
3	594	37	0.704692340948
3	613	38	0.775446483513
3	641	39	0.458060711726
3	641	39	0.620025675181
3	641	39	0.629410966413
3	641	39	0.669210539722
3	663	40	0.259388308114
3	663	40	0.762562331743
3	663	40	0.910006298404
3	685	41	0.134676907298
3	685	41	0.210698774237
3	711	43	0.692966390339
3	730	44	0.221992760508
3	753	46	0.316828651092
3	753	46	0.52675894633
3	788	48	0.336796393973
3	788	48	0.967922753785
3	804	49	0.500840455278
3	820	50	0.446010027814
3	839	51	0.059581011061
3	839	51	0.129976664687
3	839	51	0.201748186905
3	839	51	0.209941937494
3	855	52	0.647116441515
3	871	53	0.273026611464
3	904	56	0.31450672527
3	904	56	0.598278124198
3	904	56	0.769624388872
3	914	57	0.549211317376
3	927	58	0.849540413975
3	940	59	0.721675336255
3	970	62	0.251445225131
3	995	63	0.518402139561
3	1014	64	0.440867626321
3	1033	65	0.336126336783
3	1033	65	0.708147035779
3	1052	66	0.151472062266
3	1052	66	0.432043485028
3	1052	66	0.709213333103
3	1084	68	0.485061771846
3	1107	70	0.059857320619
3	1162	74	0.444216228411
3	1162	74	0.558140236187
3	1191	76	0.187446663298
3	1191	76	0.844761212861
3	1213	77	0.702111155665
3	1226	78	0.32096531113
3	1254	79	0.250759944352
3	1254	79	0.426848467069
3	1254	79	0.912967834856
3	1280	81	0.739898846125
3	1280	81	0.856672078204
3	1308	82	0.037469915184
3	1308	82	0.314304909711
3	1327	83	0.289786954615
3	1327	83	0.697909868817
3	1343	84	0.170671875668
3	1392	88	0.61439997667
3	1392	88	0.807467696764
3	1418	90	0.181562032916
3	1437	91	0.066946855829
3	1459	92	0.019444425768
3	1459	92	0.371165095809
3	1520	96	0.496161534951
3	1542	97	0.186085355355
3	1542	97	0.782873891202
3	1567	98	0.05133014035
3	1567	98	0.893364126852
3	1586	99	0.293290390457
3	1608	100	0.670236349688
3	1608	100	0.729348451315
3	1608	100	0.881620964303
4	12	1	60
4	58	5	65
4	71	6	51
4	71	6	68
4	93	7	23
4	109	8	20
4	109	8	57
4	150	10	39
4	166	11	17
4	166	11	9
4	201	13	56
4	201	13	51
4	233	15	15
4	233	15	59
4	255	16	11
4	271	17	41
4	313	20	7
4	313	20	4
4	335	21	67
4	357	22	35
4	431	27	65
4	431	27	59
4	431	27	2
4	450	28	51
4	450	28	30
4	450	28	52
4	450	28	72
4	469	29	37
4	485	30	51
4	504	31	64
4	539	33	50
4	555	34	16
4	555	34	73
4	571	35	20
4	571	35	11
4	584	36	66
4	594	37	59
4	613	38	21
4	641	39	23
4	641	39	31
4	641	39	71
4	641	39	60
4	663	40	40
4	663	40	73
4	663	40	34
4	685	41	23
4	685	41	55
4	711	43	64
4	730	44	23
4	753	46	31
4	753	46	3
4	788	48	43
4	788	48	10
4	804	49	10
4	820	50	20
4	839	51	17
4	839	51	64
4	839	51	8
4	839	51	37
4	855	52	11
4	871	53	59
4	904	56	13
4	904	56	60
4	904	56	33
4	914	57	73
4	927	58	20
4	940	59	40
4	970	62	20
4	995	63	12
4	1014	64	39
4	1033	65	67
4	1033	65	16
4	1052	66	36
4	1052	66	64
4	1052	66	20
4	1084	68	5
4	1107	70	37
4	1162	74	15
4	1162	74	6
4	1191	76	24
4	1191	76	56
4	1213	77	34
4	1226	78	33
4	1254	79	17
4	1254	79	63
4	1254	79	62
4	1280	81	66
4	1280	81	5
4	1308	82	5
4	1308	82	32
4	1327	83	39
4	1327	83	33
4	1343	84	7
4	1392	88	36
4	1392	88	27
4	1418	90	7
4	1437	91	71
4	1459	92	22
4	1459	92	8
4	1520	96	22
4	1542	97	28
4	1542	97	22
4	1567	98	14
4	1567	98	1
4	1586	99	51
4	1608	100	10
4	1608	100	10
4	1608	100	46
5	12	1	60
5	22	2	0
5	38	3	0
5	45	4	0
5	58	5	65
5	71	6	119
5	93	7	23
5	109	8	77
5	119	9	0
5	150	10	39
5	166	11	26
5	182	12	0
5	201	13	107
5	214	14	0
5	233	15	74
5	255	16	11
5	271	17	41
5	287	18	0
5	297	19	0
5	313	20	11
5	335	21	67
5	357	22	35
5	373	23	0
5	380	24	0
5	390	25	0
5	406	26	0
5	431	27	126
5	450	28	205
5	469	29	37
5	485	30	51
5	504	31	64
5	517	32	0
5	539	33	50
5	555	34	89
5	571	35	31
5	584	36	66
5	594	37	59
5	613	38	21
5	641	39	185
5	663	40	147
5	685	41	78
5	698	42	0
5	711	43	64
5	730	44	23
5	737	45	0
5	753	46	34
5	763	47	0
5	788	48	53
5	804	49	10
5	820	50	20
5	839	51	126
5	855	52	11
5	871	53	59
5	878	54	0
5	888	55	0
5	904	56	106
5	914	57	73
5	927	58	20
5	940	59	40
5	950	60	0
5	957	61	0
5	970	62	20
5	995	63	12
5	1014	64	39
5	1033	65	83
5	1052	66	120
5	1065	67	0
5	1084	68	5
5	1094	69	0
5	1107	70	37
5	1120	71	0
5	1130	72	0
5	1143	73	0
5	1162	74	21
5	1172	75	0
5	1191	76	80
5	1213	77	34
5	1226	78	33
5	1254	79	142
5	1267	80	0
5	1280	81	71
5	1308	82	37
5	1327	83	72
5	1343	84	7
5	1350	85	0
5	1360	86	0
5	1373	87	0
5	1392	88	63
5	1405	89	0
5	1418	90	7
5	1437	91	71
5	1459	92	30
5	1472	93	0
5	1491	94	0
5	1501	95	0
5	1520	96	22
5	1542	97	50
5	1567	98	15
5	1586	99	51
5	1608	100	66
6	13	1	0
6	23	2	0
6	39	3	23
6	46	4	0
6	59	5	42
6	72	6	0
6	94	7	83
6	110	8	6
6	120	9	3
6	151	10	69
6	167	11	0
6	183	12	21
6	202	13	63
6	215	14	0
6	234	15	40
6	256	16	75
6	272	17	68
6	288	18	37
6	298	19	0
6	314	20	0
6	336	21	41
6	358	22	31
6	374	23	35
6	381	24	0
6	391	25	18
6	407	26	41
6	432	27	69
6	451	28	0
6	470	29	44
6	486	30	7
6	505	31	63
6	518	32	15
6	540	33	70
6	556	34	0
6	572	35	23
6	585	36	52
6	595	37	0
6	614	38	57
6	642	39	0
6	664	40	89
6	686	41	0
6	699	42	86
6	712	43	0
6	731	44	101
6	738	45	0
6	754	46	0
6	764	47	0
6	789	48	25
6	805	49	8
6	821	50	60
6	840	51	0
6	856	52	42
6	872	53	0
6	879	54	0
6	889	55	26
6	905	56	0
6	915	57	0
6	928	58	0
6	941	59	0
6	951	60	0
6	958	61	0
6	971	62	0
6	996	63	153
6	1015	64	5
6	1034	65	20
6	1053	66	23
6	1066	67	119
6	1085	68	137
6	1095	69	0
6	1108	70	0
6	1121	71	65
6	1131	72	18
6	1144	73	60
6	1163	74	115
6	1173	75	9
6	1192	76	0
6	1214	77	29
6	1227	78	45
6	1255	79	119
6	1268	80	95
6	1281	81	0
6	1309	82	108
6	1328	83	66
6	1344	84	84
6	1351	85	0
6	1361	86	2
6	1374	87	42
6	1393	88	73
6	1406	89	0
6	1419	90	0
6	1438	91	110
6	1460	92	25
6	1473	93	0
6	1492	94	117
6	1502	95	0
6	1521	96	43
6	1543	97	68
6	1568	98	177
6	1587	99	69
6	1609	100	0
7	39	3	0.829490877557
7	59	5	0.375810658567
7	94	7	0.548672669194
7	94	7	0.821894650161
7	110	8	0.995760140317
7	120	9	0.256929525225
7	151	10	0.499464457843
7	151	10	0.596796086977
7	151	10	0.597150214767
7	151	10	0.605174448105
7	183	12	0.260424269487
7	183	12	0.558970269418
7	202	13	0.824517959433
7	234	15	0.125066685187
7	256	16	0.437062052849
7	256	16	0.458076321267
7	272	17	0.854967565034
7	288	18	0.457923542988
7	336	21	0.331236815394
7	336	21	0.667894839069
7	358	22	0.066526673524
7	374	23	0.475615908084
7	391	25	0.640849775371
7	407	26	0.447702710484
7	407	26	0.792333882569
7	432	27	0.154430290578
7	470	29	0.351192656687
7	486	30	0.007954585826
7	505	31	0.12830196124
7	505	31	0.414766629006
7	518	32	0.786824865353
7	540	33	0.065513675875
7	540	33	0.458757044104
7	540	33	0.975233692252
7	572	35	0.459625352648
7	585	36	0.859059704244
7	614	38	0.151177066781
7	614	38	0.922252688342
7	664	40	0.202111646041
7	664	40	0.892194111023
7	699	42	0.55054446469
7	699	42	0.672179057256
7	731	44	0.103382476203
7	731	44	0.290871344042
7	731	44	0.50930547889
7	789	48	0.57393336309
7	805	49	0.993420498899
7	821	50	0.276891363728
7	856	52	0.105444288601
7	856	52	0.792321494954
7	889	55	0.578250445946
7	996	63	0.126066147657
7	996	63	0.239477993879
7	996	63	0.674185009201
7	1015	64	0.999311231756
7	1034	65	0.229116328425
7	1053	66	0.761549477436
7	1066	67	0.371184587864
7	1066	67	0.572648173115
7	1085	68	0.410074382365
7	1085	68	0.557444459104
7	1085	68	0.565265172906
7	1121	71	0.92399370762
7	1131	72	0.913441050242
7	1144	73	0.517139119101
7	1163	74	0.815172895639
7	1163	74	0.929087705569
7	1173	75	0.079194991705
7	1214	77	0.425170772083
7	1214	77	0.950757905606
7	1227	78	0.650961405726
7	1255	79	0.167651197573
7	1255	79	0.23450398114
7	1255	79	0.978764380789
7	1268	80	0.15862188141
7	1268	80	0.214443314589
7	1309	82	0.331723282379
7	1309	82	0.617389374007
7	1309	82	0.687927787409
7	1309	82	0.870575665629
7	1328	83	0.525830635285
7	1328	83	0.702251611155
7	1344	84	0.534193085324
7	1344	84	0.906860473183
7	1361	86	0.79944441916
7	1374	87	0.029634597074
7	1393	88	0.569536970211
7	1438	91	0.511056519376
7	1438	91	0.986037173222
7	1460	92	0.116133253262
7	1460	92	0.185416879089
7	1492	94	0.570086254174
7	1492	94	0.598299344467
7	1492	94	0.956781677123
7	1521	96	0.517720216347
7	1543	97	0.171984992892
7	1543	97	0.837329270654
7	1568	98	0.160506565331
7	1568	98	0.305400858631
7	1568	98	0.584857772149
7	1568	98	0.820627782223
7	1587	99	0.26734313912
7	1587	99	0.357866300466
8	39	3	23
8	59	5	42
8	94	7	63
8	94	7	20
8	110	8	6
8	120	9	3
8	151	10	8
8	151	10	21
8	151	10	3
8	151	10	37
8	183	12	18
8	183	12	3
8	202	13	63
8	234	15	40
8	256	16	12
8	256	16	63
8	272	17	68
8	288	18	37
8	336	21	21
8	336	21	20
8	358	22	31
8	374	23	35
8	391	25	18
8	407	26	9
8	407	26	32
8	432	27	69
8	470	29	44
8	486	30	7
8	505	31	50
8	505	31	13
8	518	32	15
8	540	33	4
8	540	33	38
8	540	33	28
8	572	35	23
8	585	36	52
8	614	38	24
8	614	38	33
8	664	40	53
8	664	40	36
8	699	42	52
8	699	42	34
8	731	44	51
8	731	44	30
8	731	44	20
8	789	48	25
8	805	49	8
8	821	50	60
8	856	52	8
8	856	52	34
8	889	55	26
8	996	63	37
8	996	63	69
8	996	63	47
8	1015	64	5
8	1034	65	20
8	1053	66	23
8	1066	67	69
8	1066	67	50
8	1085	68	60
8	1085	68	56
8	1085	68	21
8	1121	71	65
8	1131	72	18
8	1144	73	60
8	1163	74	50
8	1163	74	65
8	1173	75	9
8	1214	77	9
8	1214	77	20
8	1227	78	45
8	1255	79	37
8	1255	79	46
8	1255	79	36
8	1268	80	63
8	1268	80	32
8	1309	82	15
8	1309	82	56
8	1309	82	4
8	1309	82	33
8	1328	83	29
8	1328	83	37
8	1344	84	27
8	1344	84	57
8	1361	86	2
8	1374	87	42
8	1393	88	73
8	1438	91	68
8	1438	91	42
8	1460	92	4
8	1460	92	21
8	1492	94	35
8	1492	94	72
8	1492	94	10
8	1521	96	43
8	1543	97	13
8	1543	97	55
8	1568	98	37
8	1568	98	48
8	1568	98	40
8	1568	98	52
8	1587	99	4
8	1587	99	65

