version 2
run General-0-20200901-17:58:06-8344
attr configname General
attr datetime 20200901-17:58:06
attr experiment General
attr inifile FairNetworkConf.ini
attr iterationvars "$nUser=3, $0=0.5"
attr iterationvarsf nUser=3,0.5-
attr measurement "$nUser=3, $0=0.5"
attr network FairNetwork
attr processid 8344
attr repetition 0
attr replication #0
attr resultdir results
attr runnumber 0
attr seedset 0
itervar nUser 3
param **.NUM_USER 3
param **.packetGenerator.senders[*].lambda 0.5
param **.antenna.timeSlot 1s

vector 0 FairNetwork.user[0] packetDelayStat:vector ETV
attr "" ""
attr source packetDelay
attr title "Packet delay stat, vector"
vector 1 FairNetwork.user[1] packetDelayStat:vector ETV
attr "" ""
attr source packetDelay
attr title "Packet delay stat, vector"
vector 2 FairNetwork.user[2] packetDelayStat:vector ETV
attr "" ""
attr source packetDelay
attr title "Packet delay stat, vector"
0	27	2	0.408250990868
1	28	2	0.920788346976
2	29	2	0.3927437785
2	29	2	0.445280252193
2	29	2	0.854616020746
0	44	4	0.6111302139
0	61	6	0.099268697805
2	73	7	0.029707257587
2	90	9	0.434191409786
0	98	10	0.380060273656
0	115	12	0.533614010714
1	126	13	0.175338625013
2	144	15	0.531502664431
0	158	16	0.630523338945
1	159	16	0.627088148693
2	160	16	0.388502028184
0	171	17	0.056121058981
2	173	17	0.062299417908
2	193	19	0.198673045428
2	193	19	0.971576383472
2	206	20	0.0612374164
2	206	20	0.39671819878
1	224	21	0.233903697554
1	224	21	0.234132472799
0	239	22	0.196095977235
0	239	22	1.298192950576
1	240	22	0.239661040656
1	240	22	0.959686536368
2	241	22	1.603294826936
2	251	23	0.20291695379
0	259	24	0.242083124448
2	274	25	0.016027877654
2	274	25	0.271582223505
0	285	26	0.16576452312
0	295	27	0.195508195677
0	311	28	0.044469801911
0	321	29	0.338151523636
0	368	34	0.774333341377
0	368	34	0.891102679563
0	449	40	0.14450878152
0	462	41	0.507796499836
0	475	42	0.540592289939
0	488	43	0.241699593437
0	521	46	0.103907358191
0	561	50	0.759484957541
0	577	51	0.254136730915
0	594	53	0.946371596473
0	607	54	0.267505890673
0	620	55	0.269761872641
0	679	60	0.073253700943
0	728	64	0.309144461463
0	728	64	0.456515172393
0	741	65	0.303666416729
0	741	65	0.485988468978
0	770	67	0.173590223315
0	770	67	0.214441400113
0	783	68	0.255093948805
0	829	72	0.680118621928
0	907	78	0.379778764576
0	955	81	0.065748539971
0	955	81	0.368210247301
0	1005	86	0.985120024087
0	1057	90	0.903335592264
0	1127	97	0.21289185398
0	1144	99	0.929473508624
0	1177	102	0.718994394501
0	1210	105	0.490990244716
0	1226	106	0.253131325463
0	1246	108	0.783202483083
0	1279	111	0.750130535103
0	1299	113	0.226503832807
0	1299	113	0.478252651683
0	1326	116	0.67604842836
0	1346	118	0.633184679662
0	1369	120	0.579082928578
0	1369	120	0.888542289578
0	1388	121	0.037413611643
0	1448	127	0.248572655669
0	1481	130	0.405843295482
0	1510	132	0.706296390705
0	1510	132	0.93018871197
0	1520	133	0.635164950249
0	1530	134	0.351775546187
0	1546	135	0.324808277821
0	1546	135	0.737214841882
0	1588	138	0.348298626318
0	1618	141	0.67771825707
0	1631	142	0.459553410704
0	1644	143	0.971456429231
0	1657	144	0.000230963423
0	1657	144	0.290787018007
0	1670	145	0.178752203668
0	1670	145	0.962293825021
0	1687	147	0.255990325536
0	1697	148	0.931717346644
0	1710	149	0.037723992294
0	1720	150	0.534840128144
0	1746	152	0.615744173408
0	1762	153	0.638630074792
0	1834	159	0.882800032237
0	1877	163	0.224973283809
0	1907	166	0.934695374409
0	1929	167	0.739203220772
0	1939	168	0.84816623067
0	1965	170	0.949177063677
0	1978	171	0.800112250195
0	2012	175	0.147410126806
0	2045	178	0.421841495409
0	2045	178	0.546072076342
0	2045	178	0.755194527892
0	2115	185	0.4214141265
0	2138	187	0.223589191398
0	2158	189	0.105920928423
0	2206	192	0.037460492848
0	2206	192	0.509873905013
0	2206	192	0.884726037049
0	2219	193	0.150652435607
0	2235	194	0.87459505875
0	2252	196	0.096509679168
0	2262	197	0.338585750603
0	2291	199	0.46646263106
0	2307	200	0.562258510611
0	2323	201	0.776033396003
0	2336	202	0.008811496122
0	2336	202	0.087177808948
0	2359	204	0.854162874509
0	2394	206	0.842420864176
0	2481	215	0.933427171824
0	2538	221	0.332263671405
0	2538	221	0.547533887717
0	2561	223	0.216610844701
0	2571	224	0.74800780715
0	2603	226	0.380142225459
0	2603	226	0.73196931631
0	2704	237	0.659941524973
0	2727	239	0.542456094785
0	2756	241	0.214463321
0	2756	241	0.798624387534
0	2772	242	0.144333966833
0	2795	244	0.888450804851
0	2811	245	0.040334784688
0	2811	245	0.600888801646
0	2831	247	0.086606636547
0	2844	248	0.740351724255
0	2860	249	0.681438444825
0	2860	249	0.91534926441
0	2880	251	0.435101841758
0	2900	253	0.298957447459
0	2916	254	0.238421222207
0	2916	254	0.535845760711
0	2958	257	0.225150555662
0	2971	258	0.787389362647
0	3043	264	0.813009578943
0	3053	265	0.892981663462
0	3073	267	0.720442901705
0	3109	270	0.04816066636
0	3109	270	0.25245042941
0	3109	270	0.279779586272
0	3126	272	0.097956798047
0	3169	276	0.458318959478
0	3189	278	0.016620677352
0	3189	278	0.21869022797
0	3266	286	0.869443932663
0	3351	293	0.371381013494
0	3391	297	0.16073841191
0	3414	299	0.896065219118
0	3430	300	0.470898032452
0	3510	308	0.832389610596
0	3510	308	0.947043463444
0	3542	310	0.975432616793
0	3555	311	0.775538843511
0	3578	313	0.046668042914
0	3578	313	0.087048299206
0	3597	314	0.966715444797
0	3613	315	0.136138185136
0	3613	315	0.800958667063
0	3699	323	0.096884408823
0	3699	323	0.352997939445
0	3712	324	0.206045484983
0	3725	325	0.50369330622
0	3738	326	0.192400737493
0	3754	327	0.939623464642
0	3774	329	0.605876411545
0	3787	330	0.840474513821
0	3830	334	0.592000119818
0	3840	335	0.522231368304
0	3899	340	0.38181299917
0	3899	340	0.514407802134
0	3912	341	0.893022103006
0	3935	343	0.534643048876
0	3955	345	0.868956016744
0	3971	346	0.196760952803
0	4005	350	0.190279907789
0	4018	351	0.573450227593
0	4028	352	0.150954353159
0	4054	354	0.669436452265
0	4107	359	0.500971121474
0	4107	359	0.698271738311
0	4166	364	0.420362105557
0	4189	366	0.53102985873
0	4189	366	0.704570823409
0	4233	371	0.232518001377
0	4243	372	0.581837170319
0	4262	373	0.795915240794
0	4262	373	0.814716742122
0	4288	375	0.594223420612
0	4334	379	0.616906691486
0	4334	379	0.899568118608
0	4357	381	0.533345383127
0	4380	383	0.013477762909
0	4423	387	0.330912819935
0	4439	388	0.032569038358
0	4439	388	0.647604485883
0	4452	389	0.627868161224
0	4462	390	0.613467914711
0	4482	392	0.847209830792
0	4498	393	0.196990113598
0	4498	393	0.237615031189
0	4511	394	0.836485609628
0	4547	397	0.305003464802
0	4569	398	0.055445579267
0	4569	398	0.372128591728
0	4569	398	0.381541672713
0	4599	401	0.790177295322
0	4609	402	0.104011231025
0	4625	403	0.474567909316
0	4645	405	0.041550602443
0	4681	408	0.384034854942
0	4691	409	0.703341378472
0	4757	415	0.153055023042
0	4770	416	0.017246716081
0	4780	417	0.445204771065
0	4810	420	0.623155952476
0	4833	422	0.906370016818
0	4843	423	0.897682403642
0	4859	424	0.10450066207
0	4921	429	0.577033510348
0	4944	431	0.878591887219
0	4967	433	0.336434441399
0	4967	433	0.841274427181
0	5011	438	0.893420644451
0	5071	444	0.788857330682
0	5094	446	0.509641403616
0	5107	447	0.324393348712
0	5117	448	0.131634560053
0	5157	452	0.384714800339
0	5231	460	0.698701633852
0	5254	462	0.047171204635
0	5254	462	0.294224499359
0	5273	463	0.341130938087
0	5300	466	0.427493820959
0	5333	469	0.065649411867
0	5349	470	0.004204418634
0	5372	472	0.994166923125
0	5392	474	0.743602889438
0	5429	478	0.484604097302
0	5445	479	0.909783145162
0	5461	480	0.168711492509
0	5471	481	0.417233807695
0	5523	485	0.147572907729
0	5608	492	0.418832001627
0	5631	494	0.060066134338
0	5657	496	0.284343313465
0	5687	499	0.700524775864
0	5710	501	0.544855007591
0	5723	502	0.15325608579
0	5746	504	0.629520543198
0	5818	510	0.378583827882
0	5831	511	0.854469344531
0	5857	513	0.78887532324
0	5873	514	0.784253726718
0	5883	515	0.68146174645
0	5900	517	0.752554615462
0	5932	519	0.887748854649
0	5948	520	0.560779875308
0	5948	520	0.599539438004
0	5964	521	0.290524444046
0	5983	522	0.572670012306
0	6012	524	0.054582977778
0	6048	527	0.216613115302
0	6048	527	0.895942580467
0	6058	528	0.531413865906
0	6071	529	0.564142492727
0	6100	531	0.639392381185
0	6133	534	0.873433968111
0	6149	535	0.753511827963
0	6204	539	0.030374464176
0	6204	539	0.247468661166
0	6204	539	0.538616618062
0	6220	540	0.128080690531
0	6220	540	0.321926199685
0	6240	542	0.440303745349
0	6253	543	0.566247717801
0	6273	545	0.77878956119
0	6283	546	0.173685589673
0	6312	548	0.397119281671
0	6312	548	0.465526118387
0	6329	550	0.279100510909
0	6417	557	0.334029552344
0	6440	559	0.222330335025
0	6453	560	0.448070150727
0	6463	561	0.318849148485
0	6488	562	0.81868615853
0	6522	566	0.281418173145
0	6544	567	0.06048515472
0	6544	567	0.976830922636
0	6554	568	0.855843925015
0	6564	569	0.710920822158
0	6656	577	0.435301301137
0	6718	582	0.382340160239
0	6718	582	0.985471986686
0	6751	585	0.100545004385
0	6771	587	0.560391285292
0	6797	589	0.126352294617
0	6838	591	0.51721633951
0	6838	591	0.726980010711
0	6838	591	0.938205297969
0	6903	596	0.478652079343
0	6913	597	0.609960767455
0	6936	599	0.104745717632
0	6959	601	0.837820482187
0	7098	614	0.307039442313
0	7153	618	0.303833698733
0	7153	618	0.627573872158
0	7212	623	0.603479119232
0	7258	627	0.120444508965
0	7258	627	0.475095659255
0	7258	627	0.551661485025
0	7278	629	0.700608654517
0	7307	631	0.159231183678
0	7307	631	0.423598602907
0	7307	631	0.788675806672
0	7334	634	0.139584272459
0	7371	638	0.371726499287
0	7411	642	0.367753508235
0	7460	646	0.014309549308
0	7460	646	1.074315305581
0	7489	648	0.028965605456
0	7489	648	0.330547625844
0	7521	650	0.772301205549
0	7521	650	0.915651974175
0	7521	650	0.983225545279
0	7607	658	0.67260752794
0	7627	660	0.281730395376
0	7640	661	0.347185262556
0	7650	662	0.138587118861
0	7660	663	0.048872862572
0	7699	666	0.384379350581
0	7699	666	0.488204454947
0	7754	670	0.358833878169
0	7770	671	0.449010188586
0	7846	678	0.029089004778
0	7856	679	0.995553472794
0	7892	682	0.122398997812
0	7905	683	0.574173915643
0	7905	683	0.59774037948
0	7947	686	0.678585751666
0	7957	687	0.786080110628
0	8010	692	0.016856606423
0	8049	695	0.398259878377
0	8100	698	0.249087223897
0	8100	698	0.625677174335
0	8113	699	0.419862138579
0	8133	701	0.947599938606
0	8155	702	0.490938799162
0	8155	702	0.602678904939
0	8168	703	0.216702537615
0	8168	703	0.662980953817
0	8184	704	0.821043522697
0	8191	705	1.783652581855
0	8201	706	2.40861467945
0	8211	707	0.251789235238
0	8224	708	0.006594547281
0	8234	709	0.499583136994
0	8283	713	0.347521016108
0	8293	714	0.500206813395
0	8344	720	0.731118236581
0	8406	725	0.466680511483
0	8426	727	0.592403076036
0	8449	729	0.154809469349
0	8484	731	0.274167805409
0	8484	731	0.3388814147
0	8514	734	0.212505352874
0	8527	735	0.85259066977
0	8537	736	0.466191130695
0	8560	738	0.419861002914
0	8560	738	0.523226814505
0	8580	740	0.698013729553
0	8609	742	0.296071916469
0	8622	743	0.752735775784
0	8734	753	0.994469999797
0	8781	758	0.551773487971
0	8797	759	0.929837878031
0	8807	760	0.026178462947
0	8834	763	0.752985472433
0	8847	764	0.218826163288
0	8884	768	0.224482228308
0	8907	770	0.441725074488
0	8937	773	0.662370946937
0	8954	775	0.042800204214
0	9027	782	0.366931536506
0	9037	783	0.6191585447
0	9047	784	0.003198437901
0	9076	786	0.038913299995
0	9076	786	0.509962446832
0	9076	786	0.987468192528
0	9098	787	0.123651976803
0	9098	787	0.535716073769
0	9108	788	0.629933439205
0	9177	794	0.851782255407
0	9196	795	0.165824704578
0	9229	798	0.47512983811
0	9242	799	0.271771865061
0	9265	801	0.923282725789
0	9335	808	0.378299836836
0	9335	808	0.894325364716
0	9352	810	0.096024031117
0	9374	811	0.211138221449
0	9374	811	0.33070014728
0	9374	811	0.50900872727
0	9381	812	1.094993497217
0	9397	813	0.955198366604
0	9410	814	0.616970919224
0	9423	815	0.869631330435
0	9460	819	0.612291141372
0	9480	821	0.228574934062
0	9569	829	0.735185706411
0	9588	830	0.786353125745
0	9617	832	0.467538511935
0	9617	832	0.863473982603
0	9646	834	0.853610363558
0	9646	834	0.903587070184
0	9692	838	0.996890089798
0	9702	839	1.857654747651
0	9715	840	0.13379129904
0	9745	843	0.858714287959
0	9755	844	0.556252824124
0	9765	845	0.347090387454
0	9788	847	0.086379295633
0	9823	849	0.54813969344
0	9852	851	0.680019028229
0	9895	855	0.140338996661
0	9928	858	0.631932456479
0	10018	867	0.352627403732
0	10034	868	0.084767364944
0	10047	869	0.595785320858
0	10057	870	0.378119493384
0	10089	872	0.202310626155
0	10136	877	0.464474284481
0	10152	878	0.55807241507
0	10152	878	0.853264480852
0	10162	879	0.995635154756
0	10162	879	1.51633797785
0	10185	881	0.154868243586
0	10238	886	0.116366280546
0	10238	886	0.887741668636
0	10282	891	0.420678757687
0	10295	892	0.453401982708
0	10312	894	0.37770183173
0	10332	896	0.602697974763
0	10345	897	0.817551918388
0	10381	900	0.26126524472
0	10404	902	0.794529898384
0	10430	904	0.8114106088
0	10430	904	0.81152131259
0	10473	908	0.689768127038
0	10486	909	0.303092229659
0	10486	909	0.942241539405
0	10496	910	0.194750571563
0	10533	914	0.995311687883
0	10591	918	0.253088788663
0	10591	918	0.663784326134
0	10621	921	0.974973487317
0	10690	927	0.86860414813
0	10700	928	0.650514922712
0	10726	930	0.324288355861
0	10742	931	0.003282196363
0	10758	932	0.517845209019
0	10791	935	0.408519333401
0	10854	941	0.519558778554
0	10864	942	0.998278519801
0	10887	944	0.37326253387
0	10933	948	0.127769225986
0	10946	949	0.541866309013
0	10965	950	0.309160567097
0	10965	950	0.78900760597
0	11053	957	0.994969484266
0	11066	958	0.534514153788
0	11082	959	0.206141452216
0	11082	959	0.258136942602
0	11109	962	0.254389859549
0	11109	962	0.719439896319
0	11122	963	0.920640577084
0	11132	964	0.81496383578
0	11158	966	0.193019099459
0	11168	967	0.255666147505
0	11194	969	0.177254874342
0	11217	971	0.44775696527
0	11217	971	0.931596254812
0	11230	972	0.384608942107
0	11230	972	0.797324929317
0	11250	974	0.617037630041
0	11280	977	0.320885283719
0	11332	981	0.332806881165
0	11365	984	0.333381793714
0	11365	984	0.583446973561
0	11385	986	0.086460794618
0	11405	988	0.629413109149
0	11433	989	0.313207930902
0	11433	989	0.697730812586
0	11433	989	0.981014882176
0	11469	992	0.789582583927
0	11492	994	0.351583893564
0	11508	995	0.343024027061
0	11521	996	0.098950188899
0	11544	998	0.432193707607
0	11587	1002	0.356749374332
0	11587	1002	0.761666901728
0	11609	1003	0.224760583992
0	11609	1003	0.585309183149
0	11609	1003	0.898260723918
0	11644	1005	0.88567940227
0	11657	1006	0.740087374739
0	11657	1006	1.618998155725
0	11680	1008	0.179238666781
0	11743	1014	0.47611418683
0	11743	1014	0.537966769951
0	11779	1017	0.577004633975
0	11818	1020	0.828318605134
0	11841	1022	0.0663924138
0	11854	1023	0.872057057066
0	11891	1027	0.191073135751
0	11907	1028	0.526459783949
0	11907	1028	0.700676950466
0	11937	1031	0.759826851647
0	11956	1032	0.153043326313
0	11986	1035	0.521790809719
0	12012	1037	0.671985164993
0	12012	1037	0.765360652282
0	12090	1043	0.134992363347
0	12103	1044	0.665680664834
0	12122	1045	0.298332067728
0	12122	1045	0.974641497417
0	12132	1046	0.747276193651
0	12173	1048	0.110706968649
0	12173	1048	0.143839157492
0	12173	1048	0.274064887065
0	12173	1048	0.485439235274
0	12199	1050	0.488424924193
0	12252	1055	0.164741844396
0	12252	1055	0.183307893152
0	12285	1058	0.947922335968
0	12318	1061	0.367943127006
0	12357	1064	0.292285698053
0	12450	1073	0.318523744575
0	12450	1073	0.980343506927
0	12480	1076	0.887142797858
0	12493	1077	0.121381707944
0	12506	1078	0.588313296386
0	12506	1078	0.720497317773
0	12519	1079	0.15182033617
0	12536	1081	0.822204837067
0	12546	1082	0.085073374135
0	12620	1090	0.497025807959
0	12662	1093	0.399002449649
0	12696	1097	0.215889304402
0	12719	1099	0.350665593864
0	12735	1100	0.032374215984
0	12735	1100	0.52520586041
0	12808	1107	0.514532261615
0	12818	1108	0.299973684376
0	12834	1109	0.772819458706
0	12880	1113	0.55104190994
0	12946	1119	0.586640558995
0	12959	1120	0.231036554885
0	13028	1126	0.557756168134
0	13057	1128	0.043282176993
0	13106	1132	0.832364650857
0	13122	1133	0.500679677583
0	13145	1135	0.50975239085
0	13165	1137	0.043991464788
0	13218	1142	0.896468538588
0	13234	1143	0.517599462892
0	13247	1144	0.824092855314
0	13286	1147	0.10122956935
0	13329	1151	0.321026173157
0	13342	1152	0.888833739969
0	13371	1154	0.964809886789
0	13407	1157	0.969674431832
0	13407	1157	0.996324921489
0	13483	1164	0.650359770302
0	13502	1165	0.797288146229
0	13548	1169	0.511122148049
0	13548	1169	0.831790337022
0	13587	1172	0.478984288399
0	13664	1180	0.46308497865
0	13753	1188	0.059366126155
0	13773	1190	0.757771441437
0	13806	1193	0.956420047516
0	13819	1194	0.572420447952
0	13819	1194	0.580533090594
0	13848	1196	0.532046272042
0	13861	1197	0.904050475915
0	13883	1198	0.984467840363
0	13899	1199	0.633083309133
0	13899	1199	0.927533383759
0	13912	1200	0.515067969151
0	13942	1203	0.061801209667
0	13961	1204	0.354608059141
0	13971	1205	0.933541482733
0	13987	1206	0.908112197474
0	14000	1207	0.218861086935
0	14000	1207	0.476021561487
0	14013	1208	0.710838330235
0	14102	1216	0.609635067679
0	14102	1216	0.815571795117
0	14112	1217	0.56747742551
0	14167	1221	0.603696743292
0	14190	1223	0.919424137617
0	14260	1230	0.701542127649
0	14273	1231	0.859555531551
0	14333	1237	0.379629597749
0	14366	1240	0.26904087704
0	14422	1245	0.528265715812
0	14435	1246	0.468342557268
0	14468	1249	0.493483048589
0	14478	1250	0.603184369776
0	14488	1251	0.792818605091
0	14504	1252	0.603677953868
0	14504	1252	0.772836937392
0	14526	1253	0.885090143616
0	14539	1254	0.839154836304
0	14578	1257	0.325349579648
0	14578	1257	0.853890507919
0	14628	1262	0.112205975006
0	14641	1263	0.040950129976
0	14641	1263	0.827954952221
0	14654	1264	0.931135384874
0	14729	1270	0.82141582686
0	14764	1272	0.184040426366
0	14764	1272	0.207026926783
0	14764	1272	0.235120109268
0	14793	1274	0.659193057936
0	14829	1277	0.714784741949
0	14848	1278	0.670433944833
0	14848	1278	0.988300304145
0	14891	1282	0.215938469969
0	14891	1282	0.381663015806
0	14904	1283	0.451163954708
0	14904	1283	0.638913049273
0	14933	1285	0.188406419499
0	14957	1288	0.958631575685
0	14993	1291	0.069651969395
0	14993	1291	0.632700014337
0	15016	1293	0.937862886125
0	15032	1294	0.84654745659
0	15055	1296	0.056809274064
0	15072	1298	0.426772612271
0	15124	1302	0.887532965851
0	15173	1306	0.947417834666
0	15186	1307	0.99446066947
0	15209	1309	0.194501230378
0	15209	1309	0.397569398261
0	15219	1310	0.564181172946
0	15238	1311	0.69044165762
0	15238	1311	0.97237742645
0	15264	1313	0.783850182645
0	15264	1313	0.897783247579
0	15277	1314	0.489500774559
0	15290	1315	0.771578137806
0	15303	1316	0.432972393834
0	15316	1317	0.825029275376
0	15326	1318	0.598151096192
0	15345	1319	0.380022185545
0	15368	1321	0.892855801993
0	15385	1323	0.593373026493
0	15401	1324	0.426525484422
0	15421	1326	0.047532981752
0	15458	1330	0.217848466467
0	15471	1331	0.551041789716
0	15484	1332	0.414700822231
0	15494	1333	0.458864847209
0	15549	1337	0.551724481321
0	15549	1337	0.951435557162
0	15559	1338	0.127708350072
0	15595	1341	0.020217346008
0	15611	1342	0.722487059952
0	15611	1342	0.839542857845
0	15628	1344	0.564633242953
0	15648	1346	0.176606501763
0	15658	1347	0.713764557853
0	15694	1350	0.697334094599
0	15740	1354	0.939097226179
0	15776	1357	0.934271638757
0	15796	1359	0.046240237013
0	15796	1359	0.646890397584
0	15806	1360	0.653316465219
0	15819	1361	0.57226533852
0	15819	1361	0.717103558749
0	15848	1363	0.144105532021
0	15848	1363	0.781273227779
0	15848	1363	0.80074404646
0	15901	1368	0.691937553137
0	15917	1369	0.039715133505
0	15917	1369	0.478651455293
0	15917	1369	0.765157498057
0	15947	1372	0.018791931057
0	15970	1374	0.786953363489
0	16023	1379	0.510780046931
0	16023	1379	0.602056145922
0	16059	1382	0.99899307825
0	16092	1385	0.782157380078
0	16105	1386	0.272097720884
0	16105	1386	0.432255432772
0	16115	1387	0.004233467901
0	16135	1389	0.541142789636
0	16172	1393	0.254943388776
0	16188	1394	0.522040805111
0	16201	1395	0.181577051959
0	16221	1397	0.458242068369
0	16237	1398	0.387433366182
0	16310	1405	0.595223615162
0	16310	1405	0.977815706959
0	16336	1407	0.520733426956
0	16349	1408	0.158910785125
0	16349	1408	0.230916444624
0	16385	1411	0.097213947238
0	16402	1413	0.971563543604
0	16412	1414	0.345766821233
0	16435	1416	0.570607934883
0	16435	1416	0.918998255631
0	16445	1417	0.034101251148
0	16455	1418	0.723530080138
0	16475	1420	0.4359393219
0	16501	1422	0.339361111988
0	16514	1423	0.689019371011
0	16527	1424	0.139334612003
0	16540	1425	0.07531300425
0	16540	1425	0.863428148144
0	16553	1426	0.07792833851
0	16563	1427	0.759904304911
0	16632	1433	0.145847892652
0	16632	1433	0.494245325818
0	16654	1434	0.454303885304
0	16654	1434	0.73147752815
0	16710	1439	0.767824025119
0	16720	1440	0.037947806261
0	16746	1442	0.274678822462
0	16746	1442	0.468273767078
0	16756	1443	0.053713132467
0	16812	1448	0.225680271451
0	16880	1453	0.777602901722
0	16880	1453	0.950836890616
0	16890	1454	0.55039448224
0	16917	1457	0.327730483999
0	16950	1460	0.751806533847
0	16990	1464	0.558533986802
0	17009	1465	0.343889967811
0	17009	1465	0.540129013069
0	17065	1470	0.656150686214
0	17084	1471	0.544832859898
0	17110	1473	0.202305470004
0	17133	1475	0.920358379476
0	17150	1477	0.514930811817
0	17167	1479	0.778990847781
0	17180	1480	0.98482894774
0	17200	1482	0.465546606493
0	17239	1485	0.583095746554
0	17239	1485	0.637979947414
0	17265	1487	0.561557420356
0	17307	1490	0.383586180181
0	17307	1490	0.932513224188
0	17352	1493	0.100846787798
0	17352	1493	0.120475660594
0	17352	1493	0.47046575703
0	17395	1497	0.180568662991
0	17395	1497	0.917734542212
0	17471	1504	0.253872506637
0	17471	1504	0.784058709451
0	17487	1505	0.028381616909
0	17510	1507	0.628330344678
0	17533	1509	0.840327539318
0	17599	1515	0.694177093747
0	17660	1519	0.794223270054
0	17670	1520	0.162186142124
0	17693	1522	0.734967233546
0	17693	1522	0.940071019553
0	17771	1528	0.667082088751
0	17794	1530	0.723060306627
0	17807	1531	0.008190101399
0	17850	1535	0.032311191711
0	17902	1539	0.251095313388
0	17902	1539	0.594172568134
0	17949	1544	0.460735734609
0	18052	1554	0.693737753919
0	18091	1557	0.135603079093
0	18091	1557	0.313267844402
0	18110	1558	0.589846899708
0	18110	1558	0.788289952676
0	18133	1560	0.607287888189
0	18153	1562	0.599185540432
0	18163	1563	0.582746632326
0	18232	1569	0.619187317673
0	18245	1570	1.489655932093
0	18295	1575	0.968447020726
0	18305	1576	0.865039795545
0	18321	1577	0.678876600895
0	18331	1578	1.080219836058
0	18357	1580	0.478544981138
0	18400	1584	0.697086672275
0	18448	1587	0.184495626502
0	18448	1587	0.91790593409
0	18448	1587	0.985649644575
0	18527	1594	0.541824733543
0	18527	1594	0.796971881137
0	18537	1595	0.663670762367
0	18547	1596	0.490133149007
0	18563	1597	0.607823527548
0	18582	1598	0.580478386894
0	18582	1598	0.613404954863
0	18592	1599	0.062548838397
0	18605	1600	0.652844304104
0	18651	1604	0.919563363743
0	18664	1605	0.893709380085
0	18677	1606	0.356784225303
0	18727	1611	0.058407700843
0	18760	1614	0.567984452348
0	18760	1614	0.777849947005
0	18786	1616	0.688980480622
0	18855	1622	0.669799600027
0	18855	1622	0.877141273311
0	18895	1626	0.404128667428
0	18895	1626	0.597211225483
0	18917	1627	0.078075270514
0	18917	1627	0.193261104148
0	18939	1628	0.105929129427
0	18939	1628	0.286944069724
0	18955	1629	0.034610472678
0	18955	1629	0.576059254152
0	18978	1631	0.128365396146
0	19021	1635	0.402013242589
0	19021	1635	0.469281084429
0	19047	1637	0.892714955161
0	19047	1637	0.924173202711
0	19057	1638	0.453425159784
0	19067	1639	0.333408413122
0	19090	1641	0.093720184547
0	19090	1641	0.234724081268
0	19107	1643	0.520602000764
0	19126	1644	0.374145567104
0	19126	1644	0.874047200404
0	19126	1644	0.940055170517
0	19155	1646	0.054529683871
0	19155	1646	0.638421827329
0	19185	1649	0.105685234304
0	19198	1650	0.824733800394
0	19211	1651	0.856579134727
0	19211	1651	0.88079762485
0	19227	1652	0.505867394382
0	19234	1653	1.260437379748
0	19292	1660	0.265310426308
0	19309	1662	0.33812503373
0	19322	1663	0.776973181376
0	19392	1670	0.457848944453
0	19411	1671	0.520006289907
0	19492	1680	0.145976494536
0	19492	1680	0.239446298007
0	19502	1681	0.093914903016
0	19512	1682	0.351591461414
0	19525	1683	0.995837945701
0	19555	1686	0.433968595918
0	19578	1688	0.397533438304
0	19611	1691	0.107166584155
0	19637	1693	0.759279695718
0	19654	1695	0.715843000899
0	19729	1704	0.620195297179
0	19745	1705	0.56707112845
0	19745	1705	0.702139442204
0	19755	1706	0.816947242212
0	19791	1709	0.759069500788
0	19821	1712	0.521747367949
0	19840	1713	0.841272928722
0	19850	1714	1.142559228558
0	19850	1714	1.695169614413
0	19876	1716	0.841234042699
0	19902	1718	0.668827420384
0	19924	1719	0.1455086075
0	19924	1719	0.710402031417
0	19944	1721	0.135641989381
0	19971	1724	0.943256867362
0	20027	1729	0.711975002518
0	20040	1730	0.255219856453
0	20083	1734	0.407742715117
0	20096	1735	0.304138471841
0	20113	1737	0.927110695753
0	20126	1738	0.309151305487
0	20139	1739	0.192497726957
0	20155	1740	0.51580548956
0	20191	1743	0.057566214195
0	20227	1746	0.605301789728
0	20263	1749	0.924749865769
0	20279	1750	0.85295227509
0	20295	1751	0.667637439217
0	20305	1752	0.773357634022
0	20384	1759	0.832067472951
0	20411	1762	0.303892688574
0	20421	1763	0.401415091593
0	20471	1768	0.221762800599
0	20484	1769	0.114117830689
0	20484	1769	0.2083163728
0	20517	1772	0.430078348324
0	20527	1773	0.900513801647
0	20537	1774	0.708170018853
0	20550	1775	0.851154810493
0	20600	1780	0.312865844817
0	20646	1784	0.343682211486
0	20646	1784	0.938429267302
0	20730	1793	0.877650618822
0	20746	1794	0.915894170216
0	20807	1801	0.970182758411
0	20827	1803	0.581202871395
0	20868	1808	0.874533335249
0	20914	1812	0.327119001874
0	20930	1813	0.365507224645
0	20930	1813	0.623584231014
0	21030	1823	0.153121295619
0	21030	1823	0.706066728706
0	21043	1824	0.061078593087
0	21043	1824	0.579303104852
0	21053	1825	0.837189510799
0	21069	1826	0.492423706723
0	21123	1832	0.462487162351
0	21178	1836	0.020058795951
0	21194	1837	0.488425697906
0	21204	1838	0.601756905903
0	21233	1840	0.260885445876
0	21249	1841	0.1675904281
0	21249	1841	0.28784716636
0	21302	1846	0.196328259406
0	21332	1849	0.330739304711
0	21332	1849	0.572402097236
0	21375	1853	0.061334515629
0	21392	1855	0.066736667295
0	21405	1856	0.145621685612
0	21405	1856	0.430627576913
0	21415	1857	0.192590043667
0	21425	1858	0.254998660389
0	21441	1859	0.317242349133
0	21451	1860	0.532919769888
0	21490	1863	0.770001610192
0	21510	1865	0.490410796863
0	21523	1866	0.947299213499
0	21559	1869	0.395455305612
0	21559	1869	0.772584754114
0	21579	1871	0.99336428696
0	21592	1872	0.097621890122
0	21592	1872	0.800264453206
0	21602	1873	0.371464209754
0	21648	1877	0.029012447046
0	21679	1881	0.373959911413
0	21692	1882	0.506630200665
0	21702	1883	0.963690267806
0	21728	1885	0.281886818624
0	21748	1887	0.886011720961
0	21764	1888	0.265025426597
0	21827	1894	0.100089743241
0	21827	1894	0.550174730965
0	21856	1896	0.089858446096
0	21882	1898	0.499414043478
0	21925	1902	0.460245037039
0	21951	1904	0.993794359682
0	22019	1909	0.359970899753
0	22029	1910	0.50214722821
0	22059	1913	0.673574022858
0	22059	1913	0.723430214313
0	22082	1915	0.26845933344
0	22092	1916	0.946174175789
0	22152	1922	0.064286080618
0	22162	1923	0.781499855152
0	22265	1933	0.411241009086
0	22301	1936	0.949803307024
0	22314	1937	0.747494014256
0	22346	1939	0.131121507311
0	22346	1939	0.278134262149
0	22369	1941	0.238918024803
0	22385	1942	0.546051369813
0	22408	1944	0.317134906381
0	22424	1945	0.98654888174
0	22440	1946	0.799887745219
0	22450	1947	0.719082350015
0	22476	1949	0.055629132365
0	22476	1949	0.337119443222
0	22492	1950	0.104949793082
0	22521	1952	0.040880332664
0	22521	1952	0.251672592488
0	22534	1953	0.075729902343
0	22604	1960	0.62509773491
0	22650	1964	0.110144153397
0	22660	1965	0.959760535069
0	22723	1971	0.04953516421
0	22723	1971	0.088513750114
0	22740	1973	0.466316975003
0	22814	1981	0.04181618845
0	22814	1981	0.684496794188
0	22824	1982	0.720356107315
0	22844	1984	0.926250079104
0	22854	1985	1.327544073221
0	22894	1989	0.300632983709
0	22894	1989	0.786123858428
0	22907	1990	0.256410374887
0	22936	1992	0.521826337226
0	22953	1994	0.915552793384
0	23041	2001	0.476736171585
0	23057	2002	0.842781411814
0	23073	2003	1.205099314988
0	23089	2004	0.989529786755
0	23168	2011	0.971402684747
0	23184	2012	0.321237528361
0	23184	2012	0.892375369367
0	23184	2012	0.944031458219
0	23234	2017	0.941944099245
0	23247	2018	0.532045456494
0	23270	2020	0.06586800206
0	23286	2021	0.322636492404
0	23299	2022	0.67180305808
0	23309	2023	0.738074370953
0	23358	2027	0.23308863081
0	23381	2029	0.690570868995
0	23381	2029	0.744332108015
0	23411	2032	0.913216321261
0	23443	2034	0.136706948082
0	23443	2034	0.948159635816
0	23462	2035	0.337116403127
0	23515	2040	0.178890141555
0	23606	2047	0.349040336692
0	23652	2051	0.014183430331
0	23652	2051	0.383415176144
0	23662	2052	0.914352225478
0	23708	2056	0.279300100347
0	23718	2057	0.694198897965
0	23731	2058	0.893435835046
0	23741	2059	0.711765394237
0	23793	2063	0.090075000145
0	23793	2063	0.311106753349
0	23816	2065	0.653343329723
0	23826	2066	0.796461272141
0	23839	2067	0.367192897385
0	23872	2070	0.672295250003
0	23885	2071	0.694078428763
0	23908	2073	0.411991760256
0	23928	2075	0.901568124735
0	23948	2077	0.953810941775
0	24001	2082	0.163575707733
0	24043	2085	0.6841795465
0	24095	2089	0.216899844303
0	24108	2090	0.75826550103
0	24131	2092	0.497351104401
0	24141	2093	0.661167786514
0	24176	2095	0.623261424361
0	24196	2097	0.367740557215
0	24216	2099	0.777994885084
0	24274	2103	0.550181255791
0	24284	2104	0.913395223679
0	24297	2105	0.023313615127
0	24297	2105	0.344281829843
0	24310	2106	0.35879236797
0	24350	2110	0.417292402191
0	24350	2110	0.478695948213
0	24376	2112	0.401265321222
0	24409	2115	0.195030050326
0	24409	2115	0.210860743338
0	24409	2115	0.923192306465
0	24432	2117	0.029249820405
0	24432	2117	0.96184387328
0	24448	2118	0.979583404912
0	24458	2119	0.467250909331
0	24487	2121	0.834065531635
0	24549	2126	0.72911254454
0	24565	2127	0.645425832569
0	24565	2127	0.832936607789
0	24575	2128	0.248263820411
0	24588	2129	0.20670609067