version 2
run General-30-20200901-18:02:11-11980
attr configname General
attr datetime 20200901-18:02:11
attr experiment General
attr inifile FairNetworkConf.ini
attr iterationvars "$nUser=30, $0=0.5"
attr iterationvarsf nUser=30,0.5-
attr measurement "$nUser=30, $0=0.5"
attr network FairNetwork
attr processid 11980
attr repetition 0
attr replication #0
attr resultdir results
attr runnumber 30
attr seedset 0
itervar nUser 30
param **.NUM_USER 30
param **.packetGenerator.senders[*].lambda 0.5
param **.antenna.timeSlot 1s

vector 0 FairNetwork.user[5] packetDelayStat:vector ETV
attr "" ""
attr source packetDelay
attr title "Packet delay stat, vector"
vector 1 FairNetwork.user[7] packetDelayStat:vector ETV
attr "" ""
attr source packetDelay
attr title "Packet delay stat, vector"
vector 2 FairNetwork.user[9] packetDelayStat:vector ETV
attr "" ""
attr source packetDelay
attr title "Packet delay stat, vector"
vector 3 FairNetwork.user[11] packetDelayStat:vector ETV
attr "" ""
attr source packetDelay
attr title "Packet delay stat, vector"
vector 4 FairNetwork.user[12] packetDelayStat:vector ETV
attr "" ""
attr source packetDelay
attr title "Packet delay stat, vector"
vector 5 FairNetwork.user[17] packetDelayStat:vector ETV
attr "" ""
attr source packetDelay
attr title "Packet delay stat, vector"
vector 6 FairNetwork.user[19] packetDelayStat:vector ETV
attr "" ""
attr source packetDelay
attr title "Packet delay stat, vector"
vector 7 FairNetwork.user[21] packetDelayStat:vector ETV
attr "" ""
attr source packetDelay
attr title "Packet delay stat, vector"
vector 8 FairNetwork.user[26] packetDelayStat:vector ETV
attr "" ""
attr source packetDelay
attr title "Packet delay stat, vector"
vector 9 FairNetwork.user[0] packetDelayStat:vector ETV
attr "" ""
attr source packetDelay
attr title "Packet delay stat, vector"
vector 10 FairNetwork.user[1] packetDelayStat:vector ETV
attr "" ""
attr source packetDelay
attr title "Packet delay stat, vector"
vector 11 FairNetwork.user[2] packetDelayStat:vector ETV
attr "" ""
attr source packetDelay
attr title "Packet delay stat, vector"
vector 12 FairNetwork.user[3] packetDelayStat:vector ETV
attr "" ""
attr source packetDelay
attr title "Packet delay stat, vector"
vector 13 FairNetwork.user[14] packetDelayStat:vector ETV
attr "" ""
attr source packetDelay
attr title "Packet delay stat, vector"
vector 14 FairNetwork.user[20] packetDelayStat:vector ETV
attr "" ""
attr source packetDelay
attr title "Packet delay stat, vector"
vector 15 FairNetwork.user[23] packetDelayStat:vector ETV
attr "" ""
attr source packetDelay
attr title "Packet delay stat, vector"
vector 16 FairNetwork.user[10] packetDelayStat:vector ETV
attr "" ""
attr source packetDelay
attr title "Packet delay stat, vector"
vector 17 FairNetwork.user[16] packetDelayStat:vector ETV
attr "" ""
attr source packetDelay
attr title "Packet delay stat, vector"
vector 18 FairNetwork.user[18] packetDelayStat:vector ETV
attr "" ""
attr source packetDelay
attr title "Packet delay stat, vector"
vector 19 FairNetwork.user[22] packetDelayStat:vector ETV
attr "" ""
attr source packetDelay
attr title "Packet delay stat, vector"
vector 20 FairNetwork.user[13] packetDelayStat:vector ETV
attr "" ""
attr source packetDelay
attr title "Packet delay stat, vector"
vector 21 FairNetwork.user[27] packetDelayStat:vector ETV
attr "" ""
attr source packetDelay
attr title "Packet delay stat, vector"
vector 22 FairNetwork.user[28] packetDelayStat:vector ETV
attr "" ""
attr source packetDelay
attr title "Packet delay stat, vector"
vector 23 FairNetwork.user[29] packetDelayStat:vector ETV
attr "" ""
attr source packetDelay
attr title "Packet delay stat, vector"
vector 24 FairNetwork.user[6] packetDelayStat:vector ETV
attr "" ""
attr source packetDelay
attr title "Packet delay stat, vector"
vector 25 FairNetwork.user[8] packetDelayStat:vector ETV
attr "" ""
attr source packetDelay
attr title "Packet delay stat, vector"
vector 26 FairNetwork.user[15] packetDelayStat:vector ETV
attr "" ""
attr source packetDelay
attr title "Packet delay stat, vector"
vector 27 FairNetwork.user[25] packetDelayStat:vector ETV
attr "" ""
attr source packetDelay
attr title "Packet delay stat, vector"
vector 28 FairNetwork.user[4] packetDelayStat:vector ETV
attr "" ""
attr source packetDelay
attr title "Packet delay stat, vector"
vector 29 FairNetwork.user[24] packetDelayStat:vector ETV
attr "" ""
attr source packetDelay
attr title "Packet delay stat, vector"
0	85	1	0.384438097373
0	85	1	0.497960044616
0	612	6	1.292698381469
0	927	9	0.269945794751
0	927	9	0.733101722173
0	1787	17	2.348631614972
0	1787	17	7.365659565401
0	2426	23	0.579329729478
0	2535	24	0.050633499386
0	2535	24	0.238861565377
0	2980	28	2.158453486213
0	3398	32	2.243569779291
0	3398	32	5.147650741275
0	3740	35	1.574325267461
0	3740	35	2.907873320412
0	3740	35	4.369230806202
0	4873	46	11.870095992045
0	4973	47	3.072613378569
0	4973	47	3.488436738906
0	5161	49	1.600781855524
0	5161	49	1.769157176894
0	5276	50	0.504227336563
0	5603	53	0.82204193732
0	5909	56	0.398294340989
0	6227	59	1.333719219479
0	6227	59	1.6784059048
0	6227	59	2.233976076592
0	6902	65	0.203234217234
0	6902	65	4.442712129324
0	6993	66	0.327492626455
0	6993	66	0.968141364899
0	7726	73	0.639445449432
0	7726	73	4.845325571698
0	7726	73	5.54750651313
0	7726	73	5.801118310991
0	7726	73	6.870791583619
0	8977	85	0.972680717493
0	8977	85	1.002056906419
0	8977	85	1.620056611244
0	8977	85	4.252631488053
0	8977	85	6.084858973913
0	8977	85	7.439942126637
0	8977	85	9.174171071223
0	8977	85	10.657482048086
0	11179	106	12.327367872097
0	11179	106	12.638721581293
0	11179	106	16.224154371733
0	11179	106	17.017850876318
0	11179	106	20.521631720054
0	11179	106	21.106587362856
0	11179	106	21.302613699042
0	12339	117	3.872898873481
0	12339	117	5.520947048004
0	12339	117	12.165563965365
0	12339	117	18.506378218114
0	12339	117	18.86849378149
0	13023	123	3.233951238799
0	13023	123	3.423778883646
0	13305	126	5.816419797086
0	13935	132	0.729819475111
0	13935	132	0.779033155993
0	14029	133	0.431935029658
0	14126	134	0.974226512592
0	14332	136	0.664396992906
0	14547	138	0.257493700594
0	14947	142	0.549688610245
0	15277	145	0.525841169247
0	15728	149	0.908062653352
0	15728	149	2.564565153344
0	15728	149	2.610965443718
0	15825	150	0.184159894216
0	15922	151	0.262627729524
0	15922	151	0.265914769461
0	16243	154	0.914245008522
0	16349	155	0.465082389391
0	16691	158	0.077619890889
0	16894	160	0.035455019622
0	18108	171	5.837687007078
0	18502	175	0.741964741475
0	18502	175	1.341737478617
0	18502	175	1.353240617635
0	18690	177	0.192032437043
0	19259	182	1.948030571108
0	19374	183	0.74844981923
0	19795	187	0.214861445625
0	19795	187	0.660562144199
0	20425	193	1.093454806313
0	20816	197	0.989906933949
0	20816	197	2.703186959552
0	20816	197	2.707620300011
0	20904	198	0.722080123877
0	21125	200	0.988405222842
0	21849	207	0.011812820619
0	22194	210	1.860312784767
0	22194	210	2.878449808466
0	22288	211	2.47011641652
0	22491	213	0.273309966798
0	22491	213	1.108973739187
0	23318	221	6.691981795571
0	23833	226	6.868614444446
0	23833	226	9.81540708906
0	24396	231	1.175955024872
0	24396	231	1.30441681089
0	24396	231	1.883104020252
0	24396	231	3.169216197025
0	24396	231	3.405553493201
0	24396	231	4.15052322389
0	24396	231	4.331523267649
0	24396	231	9.788422452568
0	24396	231	9.847509867936
0	24396	231	10.106698958472
0	24396	231	11.433608079444
0	26346	249	9.833784568498
0	26346	249	11.831858192444
0	26346	249	12.475974887721
0	26876	254	3.5275330861
0	26876	254	5.197332489761
0	26876	254	10.928619773239
0	26876	254	14.321447777538
0	27688	262	8.562565114717
0	27688	262	10.580233714248
0	28318	268	3.873131473164
0	28318	268	4.307282925549
0	28318	268	9.533198127526
0	28318	268	10.252276105674
0	28318	268	13.593864656194
0	28936	274	4.997998910687
0	29033	275	3.332001485844
0	29245	277	1.848224967289
0	29772	282	1.40746105617
0	29772	282	1.605340584581
0	30111	285	0.029788804209
0	30111	285	0.102098430716
0	30111	285	1.206108064706
0	30111	285	2.101961257896
0	30565	289	0.293761796048
0	30565	289	0.777851981681
0	30565	289	2.358747417547
0	30880	292	0.113091468665
0	31095	294	1.666447074686
0	31095	294	1.771441013594
0	31386	297	0.634779138947
0	31386	297	1.052934350558
0	31798	301	0.90540603414
0	31992	303	1.995640130868
0	32119	304	0.083282111435
0	32119	304	0.371578925565
0	32119	304	0.931776376372
0	32561	308	0.524014156358
0	32561	308	0.912937929945
0	32667	309	0.655991952404
0	32776	310	0.887993855015
0	33000	312	0.850916763996
0	33651	318	0.601574858883
0	33760	319	0.241448344847
0	33863	320	0.727568859426
0	34087	322	0.975832464817
0	34529	326	0.548729518482
0	35304	333	1.945127768766
0	35731	337	0.551063618771
0	36376	343	0.387848402397
0	36376	343	0.624722854906
0	36376	343	0.802614866938
0	36661	346	0.051759993854
0	37085	350	0.341658928326
0	38212	361	0.111111655064
0	38212	361	0.960493597775
0	38321	362	0.028589064961
0	38321	362	0.241149327666
0	38599	364	0.70505831943
0	38711	365	0.737959396652
0	38926	367	0.027359185277
0	39108	369	0.599210743922
0	39205	370	0.666313057021
0	39838	376	0.101051363028
0	39838	376	0.172632180584
0	39944	377	0.172172699353
0	40065	378	0.0396438159
0	40065	378	0.815965749386
0	40065	378	0.840858846427
0	40474	382	0.111600964158
0	40592	383	0.62602496318
0	40592	383	0.861590222263
0	40692	384	0.734435296452
0	40810	385	0.432960469819
0	41034	387	0.040962103885
0	41428	391	0.246988370961
0	41770	394	0.104232240561
0	41955	396	0.658099727155
0	42176	398	0.292927574525
0	42176	398	1.476304284851
0	42864	405	0.229322711977
0	43182	408	0.005677017962
0	43391	410	0.534858483515
0	43391	410	0.576062791325
0	43491	411	0.20340936539
0	43718	413	0.393468013703
0	43718	413	0.50325221814
0	43827	414	0.333506787228
0	43945	415	0.767897791786
0	44781	423	0.350164769714
0	45096	426	0.529592808707
0	45462	429	0.296652353822
0	45686	431	0.210688058252
0	45686	431	0.321633348082
0	45998	434	0.031210832125
0	45998	434	0.453832929429
0	46931	443	0.235502752152
0	47037	444	0.031013555936
0	47243	446	0.248125798314
0	47555	449	0.820469558403
0	47664	450	0.408507917653
0	47767	451	0.111461674037
0	47767	451	0.601429544733
0	47873	452	0.218939976902
0	48103	454	0.511963110772
0	48633	459	0.423399644979
0	48951	462	0.377659975163
0	49590	468	0.235432956672
0	50005	472	0.688982206205
0	50114	473	0.089853122193
0	50114	473	0.641546351717
0	50611	478	0.513057627423
0	51026	482	0.651515668565
0	51129	483	0.369339003147
0	51129	483	0.542064498123
0	51129	483	0.849804404338
0	51471	486	0.516047753705
0	51595	487	0.01992186325
0	52207	493	0.59750908669
0	52449	495	0.434916599392
0	52734	498	0.91750789141
0	53161	502	0.173898979421
0	53161	502	0.447948527299
0	53930	509	0.1991196227
0	53930	509	0.460061493559
0	54239	512	0.260353046366
0	54445	514	0.401041873871
0	54763	517	0.554302483254
0	55656	525	0.333771072703
0	55986	528	0.857684114534
0	56407	532	0.160904612325
0	56737	535	0.137567284237
0	56737	535	0.742579913024
0	57064	538	0.221287163824
0	57303	540	0.404984241407
0	58063	547	0.078601580385
0	58184	548	0.26562500147
0	58290	549	0.329727071904
0	58390	550	0.15033757467
0	58490	551	0.97692321994
0	58717	553	0.358140220185
0	58717	553	0.906067928128
0	58826	554	0.522030045578
0	58935	555	1.021301758674
0	59265	558	0.303707621929
0	59389	559	0.399852297012
0	59598	561	0.420468663086
0	59907	564	0.095695798379
0	60016	565	0.524991969892
0	60016	565	0.648947406915
0	60110	566	0.565809750167
0	60225	567	0.371068050395
0	60452	569	0.888441620871
0	60779	572	0.533323620269
0	60988	574	0.28314746168
0	61100	575	0.008941064586
0	61100	575	0.669449278717
0	61185	576	0.87794100229
0	61385	578	0.077685820081
0	61503	579	0.523257918451
0	61715	581	0.104883659347
0	61833	582	0.725160383391
0	61833	582	0.927067203142
0	62136	585	0.211812760575
0	62136	585	0.426957553516
0	62233	586	0.838550915887
0	62342	587	0.560766301423
0	62342	587	0.995448698001
0	62660	590	0.131155469453
0	63150	594	0.760223029055
0	63674	599	0.589112974391
0	64001	602	0.26464271569
0	64304	605	0.425748761178
0	64492	607	0.645604477287
0	64937	611	0.42032606675
0	65458	616	0.496359200229
0	65915	620	0.52270297786
0	65915	620	0.646074329262
0	66009	621	1.148963173131
0	66600	627	0.444340549999
0	66797	629	0.686748910921
0	67003	631	0.130566731878
0	67003	631	0.994267733363
0	67109	632	0.410009274917
0	67391	635	0.726209589407
0	67694	638	0.173390476952
0	67694	638	0.23218800707
0	67900	640	0.019195986264
0	68039	641	0.639387132135
0	68863	649	0.029041884771
0	68987	650	0.514123548605
0	68987	650	0.741557610425
0	69802	658	0.666994612275
0	70026	660	0.927614775737
0	70553	665	0.549367432496
0	70668	666	0.268910046474
0	70977	669	0.819056699811
0	71183	671	0.706394255578
0	71656	676	0.207292518188
0	71753	677	0.653520589296
0	72050	680	0.917653040041
0	72050	680	0.98090283844
0	72144	681	0.946965657846
0	72256	682	0.375421394217
0	72816	687	0.059195085725
0	72816	687	0.966543034799
0	72998	689	0.343209431429
0	73525	694	0.885780131079
0	73858	697	0.349327400677
0	73967	698	0.119377356895
0	74085	699	0.919042767754
0	74197	700	0.567532960355
0	74197	700	0.834224054713
0	74388	702	0.563260791469
0	74700	705	0.991629754803
0	74812	706	0.027723576148
0	74812	706	0.493553669755
0	75515	713	0.528478984307
0	75627	714	0.628204743412
0	75903	717	0.516314628805
0	76527	723	0.724223485943
0	76609	724	0.351103599111
0	76930	727	0.165331651407
0	76930	727	0.639667021243
0	77048	728	0.049250578756
0	77248	730	0.19664853636
0	77363	731	0.833665644863
0	77584	733	0.072438131773
0	77790	735	0.5690793236
0	78105	738	0.749021008714
0	78229	739	1.517806418969
0	79177	748	0.444667951687
0	79410	750	0.012465289062
0	79519	751	0.51939071419
0	79819	754	0.449719625497
0	79934	755	0.340731106945
0	80352	759	0.422114298003
0	80464	760	0.319341221485
0	80794	763	0.12919666388
0	80794	763	0.896544508748
0	81336	768	0.503600393931
0	81457	769	0.594290686302
0	81778	772	0.700021889491
0	81893	773	0.400071355073
0	82157	776	0.549360439917
0	82366	778	0.827143558067
0	82366	778	0.987193388826
0	82475	779	0.062048530749
0	82475	779	0.713381128171
0	82475	779	1.001962069576
0	82475	779	1.210747368911
0	82587	780	0.012437417261
0	82587	780	0.343302515796
0	82702	781	0.486076505346
0	82702	781	0.718960748153
0	82814	782	0.721504239854
0	83017	784	1.417023165814
0	83126	785	0.143256301567
0	83232	786	0.361708475038
0	83447	788	0.522409980298
0	83647	790	0.133223887365
0	84967	802	0.358677128533
0	85073	803	0.249068596055
0	85400	806	1.602945940026
0	85700	809	0.856522342815
0	85824	810	0.265160285569
0	85936	811	0.003211301139
0	86233	814	0.94681305054
0	86627	818	0.993350848315
0	86848	820	0.272471195007
0	86848	820	0.39832630853
0	87057	822	0.044011846719
0	87057	822	0.359216639904
0	87251	824	0.268119008397
0	87484	826	0.176811621464
0	87687	828	0.319050744921
0	87802	829	0.340744003739
0	87911	830	0.46439919737
0	88005	831	0.223439355122
0	88314	834	0.218843409056
0	88417	835	0.992175894674
0	88614	837	0.005339433146
0	88614	837	0.745238377533
0	88614	837	1.136444380835
0	88853	839	0.294678486646
0	88974	840	0.730931201339
0	89068	841	0.129606438095
0	89159	842	0.981740644219
0	89280	843	0.716090369154
0	89398	844	0.861499545849
0	89719	847	0.124786103617
0	89719	847	0.150648748695
0	89846	848	0.052603584424
0	89846	848	0.414788595778
0	90064	850	0.04693347309
0	90176	851	0.922402872694
0	90279	852	0.226805908672
0	90279	852	0.878698192274
0	90533	854	0.077659326215
0	90533	854	0.934099391632
0	91217	860	0.209727133543
0	91217	860	1.998894784669
0	91323	861	0.26129182451
0	91623	864	0.277865342613
0	91841	866	0.956059765444
0	92080	868	0.188337718701
0	92080	868	0.345219187372
0	92080	868	0.693166431975
0	92080	868	0.995710343706
0	92610	873	0.704178592521
0	92819	875	0.37410117906
0	93167	878	0.751049985295
0	93482	881	0.320750844793
0	93691	883	0.94336455243
0	93812	884	0.025483038065
0	94097	887	0.961854165318
0	94521	891	0.433571177699
0	94630	892	0.009012734244
0	94839	894	0.017652140797
0	94945	895	0.649306022919
0	95290	898	0.427195015288
0	95508	900	0.375738294196
0	95602	901	0.476701877564
0	96532	910	0.546637796489
0	96532	910	0.602846675275
0	96944	914	1.604419814632
0	97380	918	0.304947857593
0	97471	919	0.904430004722
0	97577	920	0.250129608521
0	97716	921	0.994987751151
0	98043	924	0.187525004575
1	87	1	0.325416227694
1	87	1	0.841246177063
1	390	4	0.297898847277
1	614	6	0.375630758601
1	614	6	1.529594463446
1	1468	14	0.721838475619
1	1789	17	1.151001407797
1	2204	21	3.934914836352
1	2661	25	0.30244202891
1	2764	26	0.566066483007
1	2876	27	0.019537923622
1	3076	29	0.016057298886
1	3076	29	1.406838548792
1	3176	30	0.685023152248
1	3176	30	0.834580449174
1	3285	31	0.597732421165
1	3400	32	0.972583115929
1	3742	35	1.054125942894
1	3742	35	2.554682130292
1	3742	35	3.940506540723
1	4136	39	2.780064154488
1	4348	41	0.71797715514
1	4975	47	0.564100970474
1	4975	47	0.700522349222
1	4975	47	1.698785249683
1	4975	47	2.657895071046
1	4975	47	3.461356992914
1	5496	52	0.409174388654
1	5496	52	2.640593226214
1	5496	52	3.320356992932
1	6338	60	3.602295568933
1	6456	61	0.904502092897
1	6456	61	1.753715197649
1	6456	61	2.233748796697
1	6692	63	1.70108966329
1	7125	67	0.396004653743
1	7607	72	0.042726481464
1	7728	73	0.383091987516
1	7728	73	0.433520900005
1	8079	76	0.604392121366
1	8276	78	0.180606418829
1	8276	78	0.769064163416
1	8885	84	0.183955389791
1	9409	89	0.466414206914
1	9409	89	0.848862975187
1	9409	89	1.372379368126
1	10178	96	2.747518825461
1	10178	96	5.876099060371
1	10457	99	0.950903995719
1	10969	104	0.115759932396
1	10969	104	0.401583450457
1	11181	106	0.924351209197
1	11275	107	0.442142995533
1	11375	108	0.471016289085
1	11923	113	1.810446156272
1	11923	113	2.695146009753
1	12020	114	0.169347574007
1	12020	114	0.599092328315
1	12341	117	1.237831574935
1	12341	117	1.696278296409
1	12341	117	1.908052880503
1	12447	118	0.919810892037
1	13122	124	2.736160326094
1	13122	124	3.667816050128
1	13122	124	5.570116032824
1	14031	133	2.627435863196
1	14031	133	3.538502756839
1	14031	133	4.396245716584
1	14031	133	5.694127984312
1	14949	142	7.340780055805
1	14949	142	10.980085751099
1	15279	145	6.230146153689
1	15279	145	9.157771721821
1	15385	146	0.140339003864
1	15385	146	0.894078799818
1	16033	152	3.736308926613
1	16033	152	4.044280384384
1	16033	152	5.744468823199
1	16245	154	0.511553114925
1	16245	154	1.254287072079
1	16245	154	2.125038162196
1	16245	154	3.709802813946
1	16245	154	4.915841550301
1	16245	154	5.090245644415
1	18804	178	10.796834010917
1	18804	178	13.337943462909
1	18804	178	14.473942702663
1	18804	178	15.702958450011
1	18804	178	20.779409841295
1	18804	178	21.704595612582
1	18804	178	22.369172840474
1	21018	199	21.076696922788
1	21018	199	29.646227415249
1	21018	199	30.711660493038
1	21727	206	15.526995412574
1	21727	206	16.241314335629
1	21727	206	18.944086956939
1	21727	206	19.785158460741
1	21727	206	20.183162162117
1	21727	206	23.338749967098
1	23211	220	28.429337915718
1	23626	224	6.754911733245
1	23626	224	9.062922333346
1	23626	224	10.549049787791
1	23626	224	13.593145193066
1	23626	224	16.064721639332
1	23626	224	17.222578388337
1	23626	224	17.416178134544
1	23626	224	19.616970505216
1	23626	224	19.619826301773
1	23626	224	20.65888327605
1	23626	224	21.730780370607
1	23626	224	22.330656163319
1	23626	224	23.810740485912
1	23626	224	25.950628737937
1	23626	224	27.96294949192
1	23626	224	29.915327288306
1	23626	224	31.027160069422
1	27090	256	33.703672189931
1	27090	256	36.372400633019
1	27602	261	32.480563060072
1	27908	264	0.380549801891
1	27908	264	1.568617719121
1	27908	264	7.371216240064
1	27908	264	7.681317107867
1	27908	264	14.384475344197
1	27908	264	18.442452498298
1	27908	264	18.978526191551
1	27908	264	20.608765026894
1	27908	264	22.40465848074
1	27908	264	24.499273925089
1	27908	264	25.238078486539
1	27908	264	25.571933796393
1	27908	264	25.681117977415
1	27908	264	31.838972393995
1	27908	264	34.136135958531
1	31003	293	25.607518563909
1	31282	296	0.746331921699
1	31282	296	3.040584219028
1	31282	296	3.334978315793
1	31282	296	4.364607079635
1	31282	296	5.694991172116
1	31282	296	8.902847102818
1	31282	296	11.611254315438
1	31282	296	11.812217749536
1	31282	296	13.05571869322
1	31282	296	13.136625517774
1	31282	296	13.875085695383
1	31282	296	15.396043965036
1	31282	296	15.677122928898
1	31282	296	19.324448608132
1	31282	296	23.008156112712
1	31282	296	25.175858424415
1	31282	296	26.454404047528
1	34089	322	10.841380981138
1	34089	322	11.438070695932
1	34089	322	12.510021767954
1	34089	322	18.555659007516
1	34089	322	18.917507429871
1	34089	322	21.9993535392
1	34089	322	22.713900641415
1	34089	322	23.726166649045
1	34089	322	24.510552307682
1	34089	322	25.904555468324
1	36663	346	3.140914010028
1	36663	346	5.388274372243
1	36663	346	5.827512586636
1	36663	346	10.19336828094
1	36663	346	11.571356343897
1	36663	346	14.583437425949
1	36663	346	17.792359547777
1	36663	346	19.027067605144
1	36663	346	19.26014766271
1	36663	346	20.738069765186
1	36663	346	21.968078576644
1	36663	346	25.151183236126
1	36663	346	29.202659480049
1	36663	346	32.185083881732
1	36663	346	33.652529295177
1	40476	382	25.519239253727
1	40476	382	31.116656433815
1	40476	382	31.74108269922
1	40476	382	34.964754754424
1	41772	394	0.507455419493
1	41772	394	1.623656201057
1	41772	394	2.909456890822
1	41772	394	6.26092801723
1	41772	394	7.542249283913
1	41772	394	8.425690082685
1	41772	394	9.79611578932
1	41772	394	9.939649366392
1	41772	394	11.987295812493
1	41772	394	14.137565482416
1	41772	394	17.227963621186
1	41772	394	17.546301118718
1	41772	394	21.231939053747
1	41772	394	23.758268408823
1	41772	394	24.774945133741
1	41772	394	27.961690020194
1	41772	394	28.348324116773
1	41772	394	29.639952670736
1	41772	394	30.170725972463
1	41772	394	30.818209800577
1	41772	394	31.793416761963
1	41772	394	35.963076460981
1	41772	394	36.895395913801
1	41772	394	36.978406640881
1	45803	432	0.121195291778
1	45803	432	3.477659775412
1	45803	432	5.036997332011
1	45803	432	5.515844475064
1	45803	432	5.630042608053
1	45803	432	11.243335314353
1	45803	432	12.487357069543
1	45803	432	13.482522982002
1	45803	432	14.572863155521
1	45803	432	14.965929091137
1	45803	432	14.980266915333
1	45803	432	16.420896741192
1	45803	432	19.279426748989
1	45803	432	22.11524743907
1	45803	432	25.558531109893
1	45803	432	25.643454869829
1	45803	432	28.24854759126
1	45803	432	30.925837502838
1	45803	432	32.757691272025
1	47666	450	0.202487769536
1	47666	450	3.54854836196
1	47666	450	3.822819203263
1	47666	450	4.234406297007
1	47666	450	9.922464745818
1	47666	450	11.689729098092
1	47666	450	15.215527399549
1	47666	450	16.249377690287
1	49389	466	1.834362264543
1	49389	466	1.873047315741
1	49389	466	2.244559154164
1	49389	466	3.328560919507
1	49389	466	5.039246612407
1	49389	466	6.610964247923
1	49389	466	7.118372442681
1	49389	466	10.318153792935
1	49389	466	10.602373346839
1	49389	466	11.786923962067
1	49389	466	13.939598808258
1	49389	466	15.67863930473
1	53602	506	36.483134778495
1	53602	506	38.785729262155
1	53820	508	33.185902030528
1	53820	508	33.254410513258
1	53820	508	34.593654389885
1	54338	513	37.687492434279
1	54653	516	39.166161002997
1	54986	519	25.551231253155
1	54986	519	25.921725477247
1	54986	519	26.532145688015
1	54986	519	27.173268722834
1	54986	519	28.510382684086
1	54986	519	35.899347370241
1	54986	519	37.378111220636
1	54986	519	40.566730623204
1	57411	541	46.052702702136
1	57714	544	36.537004550513
1	57714	544	44.866417934901
1	58598	552	0.189344102902
1	58598	552	1.78508934213
1	58598	552	7.569814343398
1	58598	552	10.868620915401
1	58598	552	11.862444391387
1	58598	552	14.049508622474
1	58598	552	14.409910816908
1	58598	552	14.778418406097
1	58598	552	16.537852966737
1	58598	552	20.270971862107
1	58598	552	26.838840075908
1	58598	552	29.379294232435
1	58598	552	34.194583221202
1	58598	552	35.359691047445
1	58598	552	37.345802063644
1	58598	552	37.785930877233
1	58598	552	39.739198761347
1	63473	597	33.788629012933
1	63473	597	35.292015324084
1	63473	597	38.591190245905
1	63473	597	39.569288152442
1	63473	597	40.230561435921
1	63473	597	41.47365425236
1	63473	597	41.546004871383
1	63473	597	43.988041852754
1	63473	597	44.348010414773
1	65460	616	14.554637395977
1	65460	616	14.578359093033
1	65460	616	15.383369725558
1	65460	616	15.86804269022
1	65460	616	16.15710132384
1	65460	616	17.830057782923
1	65460	616	18.943983626527
1	65460	616	19.151980367587
1	65460	616	21.538019106838
1	65460	616	22.33187236471
1	65460	616	23.819574026241
1	65460	616	25.278284015601
1	65460	616	25.325210998835
1	65460	616	39.845699840694
1	65460	616	40.169529355782
1	65460	616	42.194177648947
1	65460	616	42.325650333737
1	65460	616	46.299575226596
1	65460	616	47.197207838256
1	65460	616	49.232067201841
1	65460	616	49.248568088665
1	65460	616	52.697030590062
1	69192	652	48.058644153157
1	69192	652	48.769753351914
1	69716	657	23.342297426677
1	69716	657	24.17353383444
1	69716	657	27.72499500529
1	69716	657	27.873830577038
1	69716	657	27.895103125265
1	69716	657	29.498587146211
1	69716	657	30.051683486141
1	69716	657	37.528984666336
1	69716	657	47.330139040891
1	69716	657	47.409653792539
1	69804	658	18.561755952362
1	69804	658	19.118282141574
1	72052	680	0.502532996034
1	72052	680	2.868255429696
1	72052	680	7.700064262332
1	72052	680	8.897103978484
1	72052	680	9.154208574548
1	72052	680	10.735007386637
1	72052	680	11.384307014528
1	72052	680	12.402289069961
1	72052	680	13.036085819336
1	72052	680	16.984782995233
1	72052	680	17.033169667331
1	72052	680	21.908895732887
1	72052	680	26.03016953879
1	72052	680	26.445799646814
1	72052	680	28.327042332128
1	72052	680	29.190459944271
1	72052	680	33.2132638271
1	72052	680	36.155492441288
1	72052	680	39.107426012407
1	72052	680	39.334549279767
1	76329	721	37.796042100149
1	76329	721	37.944066604431
1	76329	721	38.726596135963
1	76329	721	40.959503303143
1	76329	721	41.440708666584
1	77250	730	44.102718317898
1	77365	731	40.340011022743
1	77365	731	42.721610548802
1	77365	731	43.804522318601
1	77365	731	44.207703582461
1	78328	740	1.460628097299
1	78328	740	1.686689451721
1	78328	740	2.979221621229
1	78328	740	6.500831563358
1	78328	740	6.964395929581
1	78328	740	11.983840964025
1	78328	740	19.621987076451
1	78328	740	20.084050882369
1	78328	740	26.452514393126
1	78328	740	27.403354546711
1	78328	740	28.40196650554
1	78328	740	29.277460780103
1	78328	740	32.217841898172
1	78328	740	32.645486688392
1	78328	740	34.349434960833
1	78328	740	34.698623727484
1	78328	740	37.034787513922
1	78328	740	39.706659763341
1	78328	740	41.132447464406
1	78328	740	41.895096801351
1	78328	740	43.997394372248
1	78328	740	45.528794675658
1	78328	740	45.971312978426
1	78328	740	47.443481250809
1	78328	740	48.939681108091
1	85702	809	60.361272027525
1	85702	809	60.903409493055
1	85702	809	62.103009540934
1	85702	809	65.61187037853
1	85702	809	66.141549876983
1	85702	809	66.415335660033
1	85702	809	67.337775230885
1	87153	823	73.714467865125
1	87359	825	60.014331212524
1	87359	825	60.120625606572
1	87359	825	65.238244220335
1	87359	825	68.675167688613
1	87359	825	70.068702700259
1	88101	832	55.739463365158
1	88101	832	55.866760576916
1	88101	832	57.411211450838
1	88101	832	60.199490023557
1	88101	832	61.745715087329
1	88101	832	63.556521076164
1	88101	832	63.946052275767
1	88101	832	66.04642996746
1	88101	832	66.050142700204
1	89948	849	1.384883864546
1	89948	849	1.801467446115
1	89948	849	2.210346126602
1	89948	849	5.073638878881
1	89948	849	5.696462923131
1	89948	849	7.7204277926
1	89948	849	10.275493789016
1	89948	849	13.691194452303
1	89948	849	14.156812904875
1	89948	849	23.111129422135
1	89948	849	23.432158912885
1	89948	849	23.513029248229
1	89948	849	25.392385522362
1	89948	849	27.193403995366
1	89948	849	27.802709091214
1	89948	849	28.908177513568
1	89948	849	29.543624070196
1	89948	849	35.762924938205
1	89948	849	35.837639592303
1	89948	849	43.097017854766
1	89948	849	43.414329857842
1	89948	849	43.732157951072
1	89948	849	43.740495635437
1	89948	849	45.877342574968
1	89948	849	46.855977297486
1	89948	849	49.345905739758
1	89948	849	53.500227084305
1	89948	849	55.731963002735
1	89948	849	56.926562796122
1	89948	849	57.604737940414
1	89948	849	60.308653291256
1	89948	849	62.159112165075
1	89948	849	62.171503926775
1	89948	849	68.019292235107
1	89948	849	68.573926552507
1	89948	849	71.305527550664
1	96655	911	58.56765454002
1	96655	911	59.133424783214
1	96655	911	59.324319639558
1	96655	911	60.059660252315
1	97382	918	22.27970475448
1	97382	918	22.59460232638
1	97382	918	25.580826884475
1	97382	918	28.658978896986
1	97382	918	30.039169646086
1	97382	918	30.593373087058
1	97382	918	32.845450847287
1	97382	918	34.831525364442
1	97382	918	40.37632667193
1	97382	918	43.771706725312
1	97382	918	46.562266238622
1	97382	918	48.872022306855
1	97382	918	49.478342283483
1	97382	918	49.699560374972
1	97382	918	49.720638125119
1	97382	918	50.897536419837
1	97382	918	53.066042650771
1	97382	918	54.30686214214
1	97382	918	55.29435051734
1	97382	918	59.813592970036
1	97382	918	61.007803536411
1	97382	918	61.200615764043
1	97382	918	63.4769657387
1	97382	918	65.28988970631
2	89	1	0.072579585583
2	89	1	0.979143310359
2	392	4	0.29595390578
2	392	4	1.678772751139
2	725	7	1.624004814704
2	725	7	1.911351905809
2	725	7	1.926495292011
2	1894	18	0.073416141116
2	1894	18	0.832159779667
2	1894	18	1.197066152818
2	1894	18	2.562092059175
2	1894	18	3.409855298701
2	1894	18	4.417839524316
2	1894	18	4.593447605653
2	1894	18	4.891871052471
2	1894	18	5.462178058921
2	1894	18	5.758080510145
2	1894	18	6.842397278379
2	1894	18	11.037139258155
2	1894	18	11.530369679967
2	1894	18	11.557192769822
2	1894	18	11.863754101538
2	4877	46	0.466990889929
2	4877	46	0.758025670527
2	4877	46	2.458843560665
2	4877	46	4.877138895704
2	4877	46	7.279142618005
2	4877	46	14.157195232058
2	4877	46	14.236233365725
2	4877	46	16.889705153453
2	4877	46	22.92010746659
2	4877	46	23.856761316672
2	7415	70	0.023800827947
2	7415	70	5.764006582413
2	7415	70	8.188200798812
2	7415	70	9.798843341353
2	7415	70	11.386271898722