version 2
run General-1-20200903-16:32:26-18516
attr configname General
attr datetime 20200903-16:32:26
attr experiment General
attr inifile FairNetworkConf.ini
attr iterationvars "$nUser=3, $0=1"
attr iterationvarsf nUser=3,1-
attr measurement "$nUser=3, $0=1"
attr network FairNetwork
attr processid 18516
attr repetition 0
attr replication #0
attr resultdir results
attr runnumber 1
attr seedset 0
itervar nUser 3
param **.NUM_USER 3
param **.TIMESLOT 1000ms
param **.packetGenerator.senders[*].lambda 1

vector 0 FairNetwork.user[0] packetDelayStat:vector ETV
attr "" ""
attr source packetDelay
attr title "Packet delay, vector"
vector 1 FairNetwork.user[0] packetBytesStat:vector ETV
attr "" ""
attr source packetBytes
attr title "Packet bytes, vector"
vector 2 FairNetwork.user[0] userThroughputStat:vector ETV
attr "" ""
attr source userThroughput
attr title "User throughput, vector"
vector 3 FairNetwork.user[1] packetDelayStat:vector ETV
attr "" ""
attr source packetDelay
attr title "Packet delay, vector"
vector 4 FairNetwork.user[1] packetBytesStat:vector ETV
attr "" ""
attr source packetBytes
attr title "Packet bytes, vector"
vector 5 FairNetwork.user[1] userThroughputStat:vector ETV
attr "" ""
attr source userThroughput
attr title "User throughput, vector"
vector 6 FairNetwork.user[2] packetDelayStat:vector ETV
attr "" ""
attr source packetDelay
attr title "Packet delay, vector"
vector 7 FairNetwork.user[2] packetBytesStat:vector ETV
attr "" ""
attr source packetBytes
attr title "Packet bytes, vector"
vector 8 FairNetwork.user[2] userThroughputStat:vector ETV
attr "" ""
attr source userThroughput
attr title "User throughput, vector"
0	20	1	0.204125495434
0	30	2	0.30556510695
0	40	3	0.049634348903
0	63	5	0.190030136828
0	73	6	0.266807005357
0	102	8	0.315261669473
0	115	9	0.528060529491
0	175	12	0.121041562225
0	175	12	1.098047988618
0	175	12	1.649096475288
0	194	13	0.082882261561
0	213	14	0.022234900956
0	213	14	0.597754097839
0	226	15	0.669075761818
0	249	17	0.387166670689
0	249	17	0.445551339782
0	309	20	0.072254390761
0	328	21	0.270296144971
0	328	21	0.753898249919
0	347	22	0.62084979672
0	360	23	0.051953679097
0	386	25	0.379742478772
0	402	26	0.627068365459
0	418	27	0.133752945338
0	418	27	0.973185798238
0	440	28	0.634880936322
0	469	30	0.036626850473
0	504	32	0.154572230733
0	504	32	0.228257586198
0	523	33	0.651833208366
0	523	33	0.74299423449
0	545	34	0.127546974404
0	545	34	0.586795111659
0	545	34	0.607220700058
0	577	36	0.340059310965
0	634	39	0.189889382289
0	675	41	0.532874269987
0	675	41	0.684105123652
0	704	43	0.492560012045
0	742	45	0.451667796133
0	791	49	0.606445926991
0	804	50	0.964736754313
0	820	51	0.359497197251
0	855	53	0.126565662731
0	855	53	0.745495122358
0	868	54	0.391601241541
0	894	56	0.875065267551
0	910	57	0.613251916403
0	910	57	0.739126325841
0	920	58	0.338024214179
0	933	59	0.31659233983
0	949	60	0.289541464288
0	949	60	0.444271144788
0	971	61	0.518706805821
0	1010	64	0.624286327834
0	1026	65	0.20292164774
0	1048	66	0.353148195351
0	1048	66	0.465094355984
0	1061	67	0.175887773092
0	1061	67	0.817582475123
0	1083	68	0.662404138909
0	1083	68	0.868607420939
0	1105	69	0.174149313157
0	1134	71	0.22977670535
0	1134	71	0.838859128533
0	1153	72	0.000115481709
0	1153	72	0.145393509001
0	1153	72	0.985728214613
0	1166	73	0.589376101831
0	1166	73	0.981146912508
0	1179	74	0.465858673319
0	1179	74	0.627995162765
0	1195	75	0.267420064069
0	1195	75	0.518861996144
0	1214	76	0.307872086701
0	1233	77	0.819315037393
0	1281	80	0.941400016115
0	1310	82	0.612486641901
0	1326	83	0.467347687201
0	1351	84	0.424083115332
0	1351	84	0.869601610383
0	1370	85	0.474588531835
0	1383	86	0.900056125094
0	1403	88	0.5737050634
0	1422	89	0.210920747702
0	1422	89	0.273036038168
0	1422	89	0.377597263943
0	1474	93	0.710707063247
0	1490	94	0.611794595696
0	1506	95	0.552960464208
0	1534	96	0.01873024642
0	1534	96	0.254936952503
0	1534	96	0.442363018521
0	1556	97	0.437297529371
0	1556	97	0.575326217799
0	1566	98	0.04825483958
0	1607	100	0.281129255301
0	1607	100	0.733231315526
0	1607	100	1.669292875297
0	1629	101	0.004405748056
0	1629	101	0.043588904469
0	1629	101	0.888016697997
0	1645	102	0.427081437249
0	1673	103	0.421210432082
0	1732	108	0.966713585906
0	1771	111	0.773766943852
0	1787	112	0.374003903568
0	1787	112	0.608305422344
0	1787	112	1.666131835696
0	1812	113	0.190071112722
0	1812	113	0.365984658148
0	1881	119	0.829970762479
0	1897	120	0.771228047385
0	1925	121	0.072166983409
0	1925	121	0.607231660492
0	1925	121	0.899312193759
0	1941	122	0.444225402418
0	1957	123	0.520167392336
0	1957	123	0.800444400815
0	1976	124	0.370175862119
0	1976	124	0.543303318265
0	1992	125	0.840719222405
0	1992	125	0.957674632197
0	2005	126	0.717550920872
0	2027	127	0.119210611096
0	2027	127	0.267922880348
0	2027	127	0.649478723722
0	2068	129	0.393694681316
0	2068	129	0.612575277823
0	2119	132	0.406504789464
0	2132	133	0.946490831724
0	2145	134	0.860221450846
0	2164	135	0.024080333173
0	2164	135	0.126225214698
0	2164	135	0.139889793129
0	2174	136	0.048978399017
0	2203	138	0.229159479733
0	2216	139	0.00831033867
0	2216	139	0.109345113979
0	2265	143	0.434721966326
0	2332	147	0.685690506742
0	2361	149	0.58036920595
0	2380	150	0.235449016221
0	2380	150	0.948032609554
0	2432	154	0.416194805293
0	2432	154	0.473521731717
0	2457	155	0.487716308392
0	2470	156	0.887769421751
0	2498	157	0.483357722395
0	2498	157	0.523334021453
0	2498	157	0.543524149599
0	2517	158	0.568069092564
0	2517	158	0.900479333528
0	2578	162	0.676498969719
0	2597	163	0.096200368743
0	2597	163	0.751846653107
0	2597	163	1.103022742488
0	2597	163	1.548442204408
0	2613	164	0.969811732318
0	2632	165	0.420237256907
0	2632	165	0.802938205769
0	2661	167	0.296000059905
0	2693	169	1.761115684148
0	2709	170	0.190906499581
0	2709	170	0.257203901063
0	2725	171	0.946511051499
0	2741	172	0.767321524434
0	2760	173	0.098380476398
0	2760	173	0.934478008368
0	2780	175	0.095139953891
0	2796	176	0.075477176576
0	2796	176	0.786725113793
0	2815	177	0.334718226129
0	2857	180	0.750485560734
0	2857	180	0.849135869152
0	2892	182	0.210181052775
0	2908	183	0.265514929361
0	2908	183	0.352285411701
0	2941	186	0.290918585156
0	2941	186	0.616259000685
0	2966	187	0.897957620393
0	2966	187	0.907358371057
0	2982	188	0.797111710302
0	3014	190	0.808453345739
0	3014	190	0.9497840593
0	3030	191	0.76667269156
0	3046	192	0.506738881451
0	3081	194	0.016284519176
0	3081	194	0.323802242938
0	3081	194	0.665456409964
0	3097	195	0.306733957352
0	3097	195	0.813934080609
0	3110	196	0.423604915393
0	3132	197	0.418242804811
0	3132	197	0.598495056796
0	3132	197	0.618807515592
0	3176	199	0.027722789631
0	3176	199	0.186064295862
0	3176	199	0.190770836354
0	3176	199	0.652501732398
0	3202	201	0.052005615511
0	3202	201	0.895088647659
0	3221	202	0.737283954656
0	3234	203	0.520775301219
0	3253	204	0.192017427469
0	3263	205	0.851670689234
0	3314	208	0.008623358039
0	3314	208	0.576527511519
0	3327	209	0.722602385531
0	3340	210	0.311577976237
0	3356	211	0.453185008408
0	3375	212	0.052250331034
0	3375	212	0.94884120182
0	3429	215	0.788516755173
0	3439	216	0.939295943609
0	3455	217	0.668217220699
0	3455	217	0.92063721359
0	3478	219	0.446710322225
0	3517	222	0.394428665341
0	3533	223	0.254820701808
0	3549	224	0.662196674356
0	3556	225	1.065817280026
0	3575	226	0.192357400169
0	3621	230	0.349350816925
0	3637	231	0.023585602316
0	3637	231	0.147112249678
0	3656	232	0.670565469042
0	3669	233	0.213746910478
0	3704	235	0.002102209315
0	3704	235	0.532824705932
0	3720	236	0.49708346156
0	3733	237	0.371801444716
0	3756	239	0.242302048648
0	3781	240	0.084355746252
0	3781	240	0.954891572578
0	3797	241	0.708616903845
0	3841	243	0.573786453862
0	3886	246	0.209416000811
0	3902	247	0.030033067166
0	3921	248	0.142171656729
0	3947	250	0.850262387928
0	3966	251	0.076628042892
0	3966	251	0.772427503792
0	3982	252	0.314760271596
0	4033	255	0.189291913938
0	4046	256	0.927234672263
0	4074	257	0.392126863357
0	4074	257	0.894437661618
0	4084	258	0.840730873223
0	4097	259	0.876277307729
0	4128	260	0.280389937651
0	4128	260	0.299769718999
0	4128	260	0.943874427322
0	4156	261	0.28633500615
0	4156	261	0.64526222202
0	4178	262	0.027291488886
0	4210	264	0.26570693295
0	4210	264	0.608306557648
0	4210	264	0.94797129023
0	4229	265	0.782071246361
0	4245	266	0.81969619059
0	4264	267	0.436716984053
0	4283	268	0.876755913979
0	4330	270	0.064040345264
0	4330	270	0.160963099841
0	4330	270	0.515187232086
0	4330	270	0.623734330581
0	4330	270	0.769308309029
0	4343	271	0.220151872673
0	4356	272	0.783123858899
0	4372	273	0.086842794834
0	4372	273	0.889394780593
0	4394	274	0.198559640833
0	4394	274	0.232763059191
0	4404	275	0.139550255452
0	4474	279	0.66701477617
0	4493	280	0.224035075361
0	4493	280	0.61116516751
0	4521	281	0.409343079262
0	4521	281	0.65942457424
0	4541	283	0.14070908657
0	4566	284	0.427921962505
0	4566	284	0.530242577358
0	4566	284	0.988415461316
0	4582	285	0.855460411077
0	4643	289	0.717650650567
0	4681	291	0.191170080119
0	4681	291	0.492735993342
0	4707	293	0.550272502192
0	4748	295	0.563176147309
0	4748	295	1.780195642646
0	4788	296	0.758608169756
0	4788	296	0.863490005356
0	4788	296	0.969102648985
0	4817	298	0.239326039673
0	4830	299	0.804980383729
0	4846	300	0.552372858817
1	20	1	25
1	30	2	4
1	40	3	57
1	63	5	73
1	73	6	1
1	102	8	22
1	115	9	20
1	175	12	11
1	175	12	42
1	175	12	75
1	194	13	22
1	213	14	21
1	213	14	39
1	226	15	45
1	249	17	15
1	249	17	40
1	309	20	27
1	328	21	67
1	328	21	23
1	347	22	3
1	360	23	64
1	386	25	61
1	402	26	2
1	418	27	70
1	418	27	52
1	440	28	30
1	469	30	25
1	504	32	8
1	504	32	63
1	523	33	34
1	523	33	44
1	545	34	21
1	545	34	38
1	545	34	49
1	577	36	50
1	634	39	22
1	675	41	55
1	675	41	29
1	704	43	1
1	742	45	65
1	791	49	19
1	804	50	64
1	820	51	38
1	855	53	57
1	855	53	57
1	868	54	72
1	894	56	38
1	910	57	34
1	910	57	47
1	920	58	2
1	933	59	75
1	949	60	33
1	949	60	17
1	971	61	17
1	1010	64	19
1	1026	65	56
1	1048	66	38
1	1048	66	14
1	1061	67	49
1	1061	67	31
1	1083	68	34
1	1083	68	62
1	1105	69	53
1	1134	71	29
1	1134	71	3
1	1153	72	49
1	1153	72	45
1	1153	72	37
1	1166	73	75
1	1166	73	60
1	1179	74	22
1	1179	74	55
1	1195	75	40
1	1195	75	57
1	1214	76	30
1	1233	77	33
1	1281	80	49
1	1310	82	10
1	1326	83	34
1	1351	84	56
1	1351	84	61
1	1370	85	12
1	1383	86	11
1	1403	88	69
1	1422	89	20
1	1422	89	45
1	1422	89	45
1	1474	93	17
1	1490	94	40
1	1506	95	51
1	1534	96	46
1	1534	96	36
1	1534	96	66
1	1556	97	2
1	1556	97	53
1	1566	98	19
1	1607	100	21
1	1607	100	3
1	1607	100	64
1	1629	101	8
1	1629	101	23
1	1629	101	63
1	1645	102	58
1	1673	103	44
1	1732	108	33
1	1771	111	61
1	1787	112	54
1	1787	112	28
1	1787	112	17
1	1812	113	21
1	1812	113	9
1	1881	119	9
1	1897	120	25
1	1925	121	27
1	1925	121	10
1	1925	121	20
1	1941	122	51
1	1957	123	6
1	1957	123	61
1	1976	124	33
1	1976	124	10
1	1992	125	45
1	1992	125	14
1	2005	126	72
1	2027	127	73
1	2027	127	43
1	2027	127	37
1	2068	129	25
1	2068	129	27
1	2119	132	21
1	2132	133	63
1	2145	134	45
1	2164	135	33
1	2164	135	18
1	2164	135	31
1	2174	136	54
1	2203	138	40
1	2216	139	33
1	2216	139	61
1	2265	143	34
1	2332	147	52
1	2361	149	12
1	2380	150	52
1	2380	150	18
1	2432	154	14
1	2432	154	72
1	2457	155	69
1	2470	156	64
1	2498	157	61
1	2498	157	14
1	2498	157	42
1	2517	158	37
1	2517	158	48
1	2578	162	56
1	2597	163	29
1	2597	163	13
1	2597	163	71
1	2597	163	57
1	2613	164	11
1	2632	165	36
1	2632	165	12
1	2661	167	50
1	2693	169	73
1	2709	170	12
1	2709	170	35
1	2725	171	60
1	2741	172	5
1	2760	173	57
1	2760	173	1
1	2780	175	46
1	2796	176	22
1	2796	176	72
1	2815	177	35
1	2857	180	43
1	2857	180	30
1	2892	182	8
1	2908	183	40
1	2908	183	31
1	2941	186	50
1	2941	186	58
1	2966	187	22
1	2966	187	45
1	2982	188	42
1	3014	190	35
1	3014	190	72
1	3030	191	16
1	3046	192	23
1	3081	194	41
1	3081	194	37
1	3081	194	46
1	3097	195	10
1	3097	195	53
1	3110	196	20
1	3132	197	13
1	3132	197	55
1	3132	197	70
1	3176	199	53
1	3176	199	25
1	3176	199	36
1	3176	199	27
1	3202	201	24
1	3202	201	44
1	3221	202	51
1	3234	203	19
1	3253	204	65
1	3263	205	72
1	3314	208	33
1	3314	208	54
1	3327	209	27
1	3340	210	4
1	3356	211	38
1	3375	212	24
1	3375	212	22
1	3429	215	19
1	3439	216	35
1	3455	217	71
1	3455	217	7
1	3478	219	20
1	3517	222	61
1	3533	223	40
1	3549	224	65
1	3556	225	61
1	3575	226	13
1	3621	230	41
1	3637	231	43
1	3637	231	5
1	3656	232	59
1	3669	233	22
1	3704	235	36
1	3704	235	1
1	3720	236	22
1	3733	237	69
1	3756	239	70
1	3781	240	71
1	3781	240	42
1	3797	241	46
1	3841	243	33
1	3886	246	66
1	3902	247	72
1	3921	248	68
1	3947	250	26
1	3966	251	23
1	3966	251	27
1	3982	252	12
1	4033	255	31
1	4046	256	4
1	4074	257	47
1	4074	257	71
1	4084	258	48
1	4097	259	15
1	4128	260	35
1	4128	260	61
1	4128	260	6
1	4156	261	39
1	4156	261	66
1	4178	262	51
1	4210	264	30
1	4210	264	19
1	4210	264	60
1	4229	265	64
1	4245	266	22
1	4264	267	27
1	4283	268	13
1	4330	270	8
1	4330	270	37
1	4330	270	31
1	4330	270	18
1	4330	270	24
1	4343	271	75
1	4356	272	26
1	4372	273	52
1	4372	273	11
1	4394	274	54
1	4394	274	2
1	4404	275	13
1	4474	279	69
1	4493	280	63
1	4493	280	4
1	4521	281	50
1	4521	281	35
1	4541	283	43
1	4566	284	22
1	4566	284	5
1	4566	284	61
1	4582	285	73
1	4643	289	20
1	4681	291	19
1	4681	291	2
1	4707	293	70
1	4748	295	50
1	4748	295	56
1	4788	296	20
1	4788	296	75
1	4788	296	4
1	4817	298	40
1	4830	299	45
1	4846	300	7
2	20	1	25
2	30	2	4
2	40	3	57
2	50	4	0
2	63	5	73
2	73	6	1
2	83	7	0
2	102	8	22
2	115	9	20
2	134	10	0
2	162	11	0
2	175	12	128
2	194	13	22
2	213	14	60
2	226	15	45
2	236	16	0
2	249	17	55
2	265	18	0
2	284	19	0
2	309	20	27
2	328	21	90
2	347	22	3
2	360	23	64
2	370	24	0
2	386	25	61
2	402	26	2
2	418	27	122
2	440	28	30
2	450	29	0
2	469	30	25
2	485	31	0
2	504	32	71
2	523	33	78
2	545	34	108
2	558	35	0
2	577	36	50
2	596	37	0
2	618	38	0
2	634	39	22
2	653	40	0
2	675	41	84
2	685	42	0
2	704	43	1
2	720	44	0
2	742	45	65
2	752	46	0
2	765	47	0
2	778	48	0
2	791	49	19
2	804	50	64
2	820	51	38
2	830	52	0
2	855	53	114
2	868	54	72
2	884	55	0
2	894	56	38
2	910	57	81
2	920	58	2
2	933	59	75
2	949	60	50
2	971	61	17
2	984	62	0
2	994	63	0
2	1010	64	19
2	1026	65	56
2	1048	66	52
2	1061	67	80
2	1083	68	96
2	1105	69	53
2	1115	70	0
2	1134	71	32
2	1153	72	131
2	1166	73	135
2	1179	74	77
2	1195	75	97
2	1214	76	30
2	1233	77	33
2	1255	78	0
2	1268	79	0
2	1281	80	49
2	1297	81	0
2	1310	82	10
2	1326	83	34
2	1351	84	117
2	1370	85	12
2	1383	86	11
2	1390	87	0
2	1403	88	69
2	1422	89	110
2	1435	90	0
2	1442	91	0
2	1458	92	0
2	1474	93	17
2	1490	94	40
2	1506	95	51
2	1534	96	148
2	1556	97	55
2	1566	98	19
2	1579	99	0
2	1607	100	88
2	1629	101	94
2	1645	102	58
2	1673	103	44
2	1689	104	0
2	1702	105	0
2	1709	106	0
2	1716	107	0
2	1732	108	33
2	1739	109	0
2	1752	110	0
2	1771	111	61
2	1787	112	99
2	1812	113	30
2	1822	114	0
2	1835	115	0
2	1842	116	0
2	1855	117	0
2	1862	118	0
2	1881	119	9
2	1897	120	25
2	1925	121	57
2	1941	122	51
2	1957	123	67
2	1976	124	43
2	1992	125	59
2	2005	126	72
2	2027	127	153
2	2043	128	0
2	2068	129	52
2	2084	130	0
2	2097	131	0
2	2119	132	21
2	2132	133	63
2	2145	134	45
2	2164	135	82
2	2174	136	54
2	2181	137	0
2	2203	138	40
2	2216	139	94
2	2229	140	0
2	2242	141	0
2	2252	142	0
2	2265	143	34
2	2287	144	0
2	2303	145	0
2	2313	146	0
2	2332	147	52
2	2342	148	0
2	2361	149	12
2	2380	150	70
2	2390	151	0
2	2400	152	0
2	2416	153	0
2	2432	154	86
2	2457	155	69
2	2470	156	64
2	2498	157	117
2	2517	158	85
2	2527	159	0
2	2540	160	0
2	2556	161	0
2	2578	162	56
2	2597	163	170
2	2613	164	11
2	2632	165	48
2	2645	166	0
2	2661	167	50
2	2674	168	0
2	2693	169	73
2	2709	170	47
2	2725	171	60
2	2741	172	5
2	2760	173	58
2	2770	174	0
2	2780	175	46
2	2796	176	94
2	2815	177	35
2	2828	178	0
2	2841	179	0
2	2857	180	73
2	2870	181	0
2	2892	182	8
2	2908	183	71
2	2921	184	0
2	2928	185	0
2	2941	186	108
2	2966	187	67
2	2982	188	42
2	2992	189	0
2	3014	190	107
2	3030	191	16
2	3046	192	23
2	3059	193	0
2	3081	194	124
2	3097	195	63
2	3110	196	20
2	3132	197	138
2	3148	198	0
2	3176	199	141
2	3183	200	0
2	3202	201	68
2	3221	202	51
2	3234	203	19
2	3253	204	65
2	3263	205	72
2	3279	206	0
2	3295	207	0
2	3314	208	87
2	3327	209	27
2	3340	210	4
2	3356	211	38
2	3375	212	46
2	3385	213	0
2	3407	214	0
2	3429	215	19
2	3439	216	35
2	3455	217	78
2	3465	218	0
2	3478	219	20
2	3494	220	0
2	3504	221	0
2	3517	222	61
2	3533	223	40
2	3549	224	65
2	3556	225	61
2	3575	226	13
2	3591	227	0
2	3601	228	0
2	3611	229	0
2	3621	230	41
2	3637	231	48
2	3656	232	59
2	3669	233	22
2	3685	234	0
2	3704	235	37
2	3720	236	22
2	3733	237	69
2	3743	238	0
2	3756	239	70
2	3781	240	113
2	3797	241	46
2	3810	242	0
2	3841	243	33
2	3860	244	0
2	3867	245	0
2	3886	246	66
2	3902	247	72
2	3921	248	68
2	3931	249	0
2	3947	250	26
2	3966	251	50
2	3982	252	12
2	3995	253	0
2	4017	254	0
2	4033	255	31
2	4046	256	4
2	4074	257	118
2	4084	258	48
2	4097	259	15
2	4128	260	102
2	4156	261	105
2	4178	262	51
2	4191	263	0
2	4210	264	109
2	4229	265	64
2	4245	266	22
2	4264	267	27
2	4283	268	13
2	4299	269	0
2	4330	270	118
2	4343	271	75
2	4356	272	26
2	4372	273	63
2	4394	274	56
2	4404	275	13
2	4417	276	0
2	4430	277	0
2	4455	278	0
2	4474	279	69
2	4493	280	67
2	4521	281	85
2	4531	282	0
2	4541	283	43
2	4566	284	88
2	4582	285	73
2	4595	286	0
2	4608	287	0
2	4627	288	0
2	4643	289	20
2	4668	290	0
2	4681	291	21
2	4697	292	0
2	4707	293	70
2	4729	294	0
2	4748	295	106
2	4788	296	99
2	4801	297	0
2	4817	298	40
2	4830	299	45
2	4846	300	7
3	21	1	0.460394173488
3	84	7	0.587669312507
3	103	8	0.313544074347
3	163	11	0.119830520328
3	163	11	0.479843268184
3	163	11	0.616951848777
3	163	11	0.6170662364
3	266	18	0.012006635765
3	266	18	0.170716232991
3	285	19	0.140675794912
3	285	19	0.645818805586
3	285	19	0.742702678089
3	310	20	0.019707524355
3	310	20	0.443684003162
3	310	20	0.934561160948
3	348	22	0.406361646037
3	348	22	0.911814178509
3	387	25	0.664665630365
3	403	26	0.890705860089
3	419	27	0.017882193218
3	441	28	0.098723621934
3	441	28	0.474542814592
3	470	30	0.199354220648
3	470	30	0.942843911326
3	486	31	0.384626349544
3	486	31	0.970629814055
3	524	33	0.019113203328
3	524	33	0.279929053267
3	546	34	0.22688532326
3	546	34	0.991343575711
3	559	35	0.11680500471
3	619	38	0.1237474747
3	619	38	0.663838524489
3	635	39	0.512724263692
3	654	40	0.694716952312
3	676	41	1.13137172097
3	686	42	1.980098803298
3	705	43	0.181120192015
3	721	44	0.96034697513
3	743	45	0.453514226137
3	766	47	0.840346534878
3	779	48	0.581669323703
3	821	51	0.131442236417
3	856	53	0.034689015698
3	856	53	0.132082254823
3	856	53	0.508120877238
3	885	55	0.855985513154
3	895	56	1.125857808019
3	911	57	0.03524088506
3	934	59	0.032610407984
3	985	62	0.78255453877
3	995	63	0.015603320178
3	1011	64	0.926723791587
3	1027	65	0.11725950181
3	1027	65	0.157097380965
3	1049	66	0.551166046207
3	1049	66	0.61223666437
3	1049	66	0.798361953328
3	1084	68	0.446263061577
3	1106	69	0.232473678487
3	1106	69	0.335999030643
3	1116	70	0.333370597075
3	1135	71	0.786731904988
3	1154	72	0.673044277221
3	1196	75	0.505585354768
3	1215	76	0.213137686152
3	1215	76	0.974917708707
3	1234	77	0.993050841436
3	1256	78	0.473825434044
3	1256	78	0.815794250517
3	1269	79	0.941444755282
3	1269	79	1.094735959639
3	1282	80	0.781485886961
3	1298	81	0.252177728273
3	1327	83	0.452633999274
3	1352	84	0.867462466758
3	1352	84	0.90223126682
3	1352	84	0.920688844819
3	1371	85	0.480590689401
3	1384	86	0.502344807808
3	1436	90	0.005034139455
3	1459	92	0.924352949443
3	1475	93	0.190841510927
3	1475	93	0.5453691883
3	1491	94	0.861720597865
3	1507	95	1.270887195159
3	1535	96	0.277330411848
3	1535	96	0.353525054907
3	1535	96	0.462476467999
3	1535	96	0.713665323531
3	1557	97	0.049873492974
3	1557	97	0.683316050864
3	1608	100	0.208702736246
3	1608	100	0.55629638776
3	1608	100	0.65741287645
3	1674	103	0.265923610464
3	1674	103	0.405218516428
3	1674	103	0.532473048411
3	1674	103	0.871834936328
3	1690	104	0.521905397904
3	1703	105	0.279219089001
3	1703	105	1.415021010125
3	1703	105	1.502348442848
3	1733	108	0.554188334082
3	1733	108	0.79197369428
3	1753	110	0.141248275965
3	1788	112	0.801037821348
3	1788	112	1.477471769886
3	1788	112	1.832619467624
3	1813	113	0.03368481111
3	1813	113	0.86819287732
3	1813	113	0.923031971044
3	1823	114	0.180092768126
3	1836	115	0.06965706455
3	1836	115	0.228334642908
3	1882	119	0.043936904312
3	1882	119	0.933842644982
3	1926	121	0.167698260177
3	1926	121	0.275655957194
3	1926	121	0.538340320773
3	1926	121	1.74150798784
3	1942	122	0.40531140723
3	1958	123	0.870780373846
3	2006	126	0.876284663597
3	2028	127	0.01144410116
3	2028	127	0.690805924851
3	2044	128	0.47670264994
3	2069	129	0.647623249556
3	2069	129	0.698867554439
3	2085	130	0.197387065185
3	2098	131	0.38333355105
3	2098	131	0.429739570829
3	2120	132	0.142516914085
3	2120	132	0.293300409532
3	2133	133	0.419139144129
3	2165	135	0.846979775327
3	2204	138	0.040413373235
3	2204	138	0.923644251357
3	2204	138	0.953898696404
3	2243	141	0.893759046348
3	2266	143	0.55656270623
3	2288	144	0.036256853917
3	2288	144	0.630428186802
3	2288	144	0.778318987072
3	2304	145	0.886275071518
3	2333	147	0.659392185554
3	2343	148	0.012297625303
3	2362	149	0.031189314271
3	2362	149	0.538150471226
3	2381	150	0.077331422631
3	2381	150	0.258079251049
3	2391	151	0.02091940906
3	2433	154	0.396632358927
3	2458	155	0.94837296348
3	2471	156	0.674702975038
3	2471	156	1.521021293591
3	2499	157	0.28515491608
3	2518	158	0.269495463365
3	2541	160	0.839840392121
3	2541	160	0.974875635868
3	2579	162	0.691639453824
3	2598	163	0.519796287906
3	2614	164	0.542501564578
3	2633	165	0.499089151609
3	2646	166	0.109017918234
3	2662	167	0.243066936659
3	2662	167	0.67215642375
3	2694	169	0.046893435881
3	2694	169	0.487775977127
3	2694	169	0.802387951181
3	2742	172	0.78462254084
3	2761	173	0.387112113277
3	2771	174	0.828336389382
3	2797	176	0.696827957622
3	2842	179	0.337242539646
3	2842	179	0.348980353364
3	2858	180	0.248259248135
3	2871	181	0.558886795477
3	2893	182	0.388293267226
3	2893	182	0.510173902709
3	2893	182	0.586830362127
3	2922	184	0.842057950005
3	2967	187	0.192599669518
3	2967	187	0.790276925144
3	2967	187	0.85648866074
3	2983	188	0.753613408224
3	2993	189	0.889939776616
3	3031	191	0.045434808711
3	3047	192	0.043236472591
3	3047	192	0.520955049863
3	3060	193	0.772703869149
3	3082	194	0.333345943722
3	3133	197	0.996381428581
3	3149	198	0.5197465387
3	3177	199	0.305687838992
3	3177	199	0.30856229104
3	3177	199	0.667182698324
3	3203	201	0.824031065992
3	3222	202	0.302478144985
3	3222	202	0.697960599175
3	3222	202	0.863932332685
3	3235	203	0.438224842225
3	3254	204	0.680393285921
3	3254	204	0.689442098701
3	3280	206	0.509344263288
3	3296	207	0.274766115859
3	3315	208	0.196647868799
3	3315	208	0.832735938942
3	3357	211	0.804847384968
3	3376	212	0.358409861548
3	3386	213	0.381944096086
3	3408	214	0.751973224228
3	3430	215	1.422682236415
3	3430	215	1.73602549161
3	3456	217	0.771429564802
3	3479	219	0.989466417854
3	3495	220	0.815385954864
3	3505	221	1.013929607518
3	3576	226	0.01826821655
3	3576	226	0.090926541986
3	3592	227	0.042057762463
3	3592	227	0.189555662753
3	3592	227	0.829114762627
3	3612	229	0.684293219617
3	3657	232	0.774111382493
3	3657	232	0.987250243135
3	3670	233	0.580688852163
3	3686	234	0.956486394541
3	3705	235	0.217982454299
3	3705	235	1.626371318575
3	3705	235	1.888207367956
3	3721	236	0.508202640121
3	3734	237	0.106282050169
3	3744	238	0.872370344485
3	3782	240	0.257540535762
3	3782	240	0.308101725297
3	3798	241	0.014394526713
3	3811	242	0.150095084328
3	3811	242	0.282793637937
3	3842	243	0.961016723293
3	3861	244	0.164041621833
3	3861	244	0.271777436745
3	3861	244	0.554420320421
3	3861	244	1.267383095873
3	3861	244	1.296097938134
3	3861	244	1.409675799812
3	3861	244	1.436236417962
3	3861	244	1.940936322729
3	3903	247	0.08305217896
3	3903	247	0.857043031112
3	3903	247	1.197729099172
3	3922	248	0.819401084424
3	3932	249	1.014602590703
3	3983	252	0.582907063565
3	4018	254	0.737551271196
3	4034	255	0.589318467974
3	4034	255	0.685340985805
3	4034	255	1.012711918152
3	4034	255	1.278792365066
3	4034	255	1.411379423263
3	4047	256	0.708010472304
3	4075	257	0.86388537174
3	4129	260	0.370712636394
3	4157	261	0.00622931405
3	4157	261	0.829554020082
3	4179	262	0.528788092822
3	4179	262	0.547611435643
3	4211	264	0.852168319966
3	4230	265	0.2395620281
3	4246	266	0.6321747515
3	4246	266	0.897409687807
3	4265	267	0.368481659254
3	4300	269	0.722871388029
3	4331	270	0.28287960764
3	4331	270	0.773674926664
3	4344	271	0.726167408786
3	4373	273	0.734430084352
3	4395	274	0.340615640856
3	4418	276	0.965768946251
3	4431	277	0.035723168563
3	4431	277	0.595008227827
3	4431	277	1.407480165851
3	4456	278	0.082143068
3	4456	278	0.211504254988
3	4456	278	0.377958546109
3	4456	278	0.439746395031
3	4456	278	0.889013636252
3	4532	282	1.268922088862
3	4532	282	1.314496896317
3	4567	284	0.673370042077
3	4567	284	0.787092222867
3	4583	285	0.150300345943
3	4596	286	0.894492401487
3	4609	287	0.936522686049
3	4628	288	0.651624605304
3	4628	288	0.688288004301
3	4644	289	0.831287075373
3	4669	290	0.19405644083
3	4669	290	0.54270577896
3	4669	290	0.617401613346
3	4669	290	0.756398902865
3	4669	290	0.769034377298
3	4730	294	0.326838873993
3	4730	294	0.774399842099
3	4749	295	0.487276603739
3	4789	296	0.40624185496
3	4789	296	0.571278253301
3	4789	296	0.862066139398
3	4789	296	0.93891370473
3	4789	296	1.166182303735
3	4802	297	0.044344034138
3	4818	298	0.650615307678
3	4818	298	0.86806196735
4	21	1	47
4	84	7	56
4	103	8	70
4	163	11	10
4	163	11	51
4	163	11	73
4	163	11	2
4	266	18	56
4	266	18	59
4	285	19	37
4	285	19	58
4	285	19	56
4	310	20	39
4	310	20	45
4	310	20	51
4	348	22	4
4	348	22	53
4	387	25	1
4	403	26	56
4	419	27	22
4	441	28	74
4	441	28	22
4	470	30	57
4	470	30	39
4	486	31	47
4	486	31	67
4	524	33	9
4	524	33	31
4	546	34	67
4	546	34	50
4	559	35	59
4	619	38	41
4	619	38	33
4	635	39	43
4	654	40	46
4	676	41	34
4	686	42	33
4	705	43	29
4	721	44	4
4	743	45	58
4	766	47	51
4	779	48	18
4	821	51	74
4	856	53	24
4	856	53	49
4	856	53	60
4	885	55	23
4	895	56	68
4	911	57	63
4	934	59	63
4	985	62	24
4	995	63	57
4	1011	64	71
4	1027	65	74
4	1027	65	72
4	1049	66	37
4	1049	66	54
4	1049	66	56
4	1084	68	60
4	1106	69	9
4	1106	69	52
4	1116	70	38
4	1135	71	73
4	1154	72	60
4	1196	75	55
4	1215	76	5
4	1215	76	31
4	1234	77	55
4	1256	78	32
4	1256	78	9
4	1269	79	18
4	1269	79	41
4	1282	80	10
4	1298	81	54
4	1327	83	69
4	1352	84	4
4	1352	84	60
4	1352	84	63
4	1371	85	5
4	1384	86	40
4	1436	90	55
4	1459	92	71
4	1475	93	68
4	1475	93	41
4	1491	94	54
4	1507	95	23
4	1535	96	44
4	1535	96	61
4	1535	96	28
4	1535	96	18
4	1557	97	14
4	1557	97	16
4	1608	100	8
4	1608	100	11
4	1608	100	1
4	1674	103	53
4	1674	103	53
4	1674	103	60
4	1674	103	64
4	1690	104	65
4	1703	105	50
4	1703	105	43
4	1703	105	47
4	1733	108	36
4	1733	108	32
4	1753	110	31
4	1788	112	75
4	1788	112	4
4	1788	112	66
4	1813	113	52
4	1813	113	8
4	1813	113	21
4	1823	114	11
4	1836	115	16
4	1836	115	42
4	1882	119	4
4	1882	119	42
4	1926	121	53
4	1926	121	8
4	1926	121	24
4	1926	121	75
4	1942	122	29
4	1958	123	65
4	2006	126	38
4	2028	127	26
4	2028	127	33
4	2044	128	38
4	2069	129	74
4	2069	129	6
4	2085	130	75
4	2098	131	30
4	2098	131	25
4	2120	132	62
4	2120	132	37
4	2133	133	3
4	2165	135	20
4	2204	138	17
4	2204	138	29
4	2204	138	23
4	2243	141	52
4	2266	143	28
4	2288	144	52
4	2288	144	39
4	2288	144	41
4	2304	145	63
4	2333	147	8
4	2343	148	28
4	2362	149	5
4	2362	149	50
4	2381	150	13
4	2381	150	4
4	2391	151	27
4	2433	154	71
4	2458	155	58
4	2471	156	51
4	2471	156	36
4	2499	157	16
4	2518	158	36
4	2541	160	29
4	2541	160	35
4	2579	162	54
4	2598	163	3
4	2614	164	24
4	2633	165	22
4	2646	166	38
4	2662	167	9
4	2662	167	74
4	2694	169	30
4	2694	169	45
4	2694	169	63
4	2742	172	54
4	2761	173	21
4	2771	174	55
4	2797	176	67
4	2842	179	20
4	2842	179	66
4	2858	180	56
4	2871	181	21
4	2893	182	20
4	2893	182	24
4	2893	182	49
4	2922	184	41
4	2967	187	5
4	2967	187	38
4	2967	187	50
4	2983	188	20
4	2993	189	58
4	3031	191	16
4	3047	192	31
4	3047	192	38
4	3060	193	55
4	3082	194	55
4	3133	197	30
4	3149	198	38
4	3177	199	29
4	3177	199	3
4	3177	199	30
4	3203	201	70
4	3222	202	9
4	3222	202	72
4	3222	202	6
4	3235	203	43
4	3254	204	58
4	3254	204	42
4	3280	206	17
4	3296	207	20
4	3315	208	49
4	3315	208	8
4	3357	211	21
4	3376	212	40
4	3386	213	72
4	3408	214	18
4	3430	215	49
4	3430	215	68
4	3456	217	40
4	3479	219	60
4	3495	220	31
4	3505	221	66
4	3576	226	70
4	3576	226	32
4	3592	227	29
4	3592	227	68
4	3592	227	29
4	3612	229	17
4	3657	232	40
4	3657	232	10
4	3670	233	28
4	3686	234	58
4	3705	235	72
4	3705	235	59
4	3705	235	55
4	3721	236	3
4	3734	237	8
4	3744	238	42
4	3782	240	50
4	3782	240	47
4	3798	241	3
4	3811	242	23
4	3811	242	74
4	3842	243	24
4	3861	244	1
4	3861	244	46
4	3861	244	39
4	3861	244	17
4	3861	244	4
4	3861	244	34
4	3861	244	41
4	3861	244	70
4	3903	247	20
4	3903	247	22
4	3903	247	70
4	3922	248	22
4	3932	249	29
4	3983	252	11
4	4018	254	32
4	4034	255	10
4	4034	255	61
4	4034	255	66
4	4034	255	13
4	4034	255	42
4	4047	256	11
4	4075	257	64
4	4129	260	59
4	4157	261	42
4	4157	261	29
4	4179	262	44
4	4179	262	2
4	4211	264	55
4	4230	265	28
4	4246	266	19
4	4246	266	49
4	4265	267	57
4	4300	269	13
4	4331	270	17
4	4331	270	74
4	4344	271	43
4	4373	273	66
4	4395	274	38
4	4418	276	70
4	4431	277	43
4	4431	277	45
4	4431	277	24
4	4456	278	68
4	4456	278	46
4	4456	278	57
4	4456	278	23
4	4456	278	44
4	4532	282	11
4	4532	282	71
4	4567	284	37
4	4567	284	11
4	4583	285	35
4	4596	286	9
4	4609	287	59
4	4628	288	39
4	4628	288	72
4	4644	289	3
4	4669	290	49
4	4669	290	50
4	4669	290	35
4	4669	290	73
4	4669	290	63
4	4730	294	26
4	4730	294	40
4	4749	295	17
4	4789	296	14
4	4789	296	1
4	4789	296	17
4	4789	296	29
4	4789	296	51
4	4802	297	25
4	4818	298	37
4	4818	298	23
5	21	1	47
5	31	2	0
5	41	3	0
5	51	4	0
5	64	5	0
5	74	6	0
5	84	7	56
5	103	8	70
5	116	9	0
5	135	10	0
5	163	11	136
5	176	12	0
5	195	13	0
5	214	14	0
5	227	15	0
5	237	16	0
5	250	17	0
5	266	18	115
5	285	19	151
5	310	20	135
5	329	21	0
5	348	22	57
5	361	23	0
5	371	24	0
5	387	25	1
5	403	26	56
5	419	27	22
5	441	28	96
5	451	29	0
5	470	30	96
5	486	31	114
5	505	32	0
5	524	33	40
5	546	34	117
5	559	35	59
5	578	36	0
5	597	37	0
5	619	38	74
5	635	39	43
5	654	40	46
5	676	41	34
5	686	42	33
5	705	43	29
5	721	44	4
5	743	45	58
5	753	46	0
5	766	47	51
5	779	48	18
5	792	49	0
5	805	50	0
5	821	51	74
5	831	52	0
5	856	53	133
5	869	54	0
5	885	55	23
5	895	56	68
5	911	57	63
5	921	58	0
5	934	59	63
5	950	60	0
5	972	61	0
5	985	62	24
5	995	63	57
5	1011	64	71
5	1027	65	146
5	1049	66	147
5	1062	67	0