version 2
run General-0-20200905-16:49:17-13788
attr configname General
attr datetime 20200905-16:49:17
attr experiment General
attr inifile FairNetworkConf.ini
attr iterationvars "$nUser=3, $0=1"
attr iterationvarsf nUser=3,1-
attr measurement "$nUser=3, $0=1"
attr network FairNetwork
attr processid 13788
attr repetition 0
attr replication #0
attr resultdir results
attr runnumber 0
attr seedset 0
itervar nUser 3
param **.NUM_USER 3
param **.TIMESLOT 1000ms
param **.packetGenerator.senders[*].lambda 1

vector 0 FairNetwork.user[0] packetDelayStat:vector ETV
attr "" ""
attr source packetDelay
attr title "Packet delay, vector"
vector 1 FairNetwork.user[0] packetBytesStat:vector ETV
attr "" ""
attr source packetBytes
attr title "Packet bytes, vector"
vector 2 FairNetwork.user[0] userThroughputStat:vector ETV
attr "" ""
attr source userThroughput
attr title "User throughput, vector"
vector 3 FairNetwork.user[1] packetDelayStat:vector ETV
attr "" ""
attr source packetDelay
attr title "Packet delay, vector"
vector 4 FairNetwork.user[1] packetBytesStat:vector ETV
attr "" ""
attr source packetBytes
attr title "Packet bytes, vector"
vector 5 FairNetwork.user[1] userThroughputStat:vector ETV
attr "" ""
attr source userThroughput
attr title "User throughput, vector"
vector 6 FairNetwork.user[2] packetDelayStat:vector ETV
attr "" ""
attr source packetDelay
attr title "Packet delay, vector"
vector 7 FairNetwork.user[2] packetBytesStat:vector ETV
attr "" ""
attr source packetBytes
attr title "Packet bytes, vector"
vector 8 FairNetwork.user[2] userThroughputStat:vector ETV
attr "" ""
attr source userThroughput
attr title "User throughput, vector"
0	20	1	0.204125495434
0	30	2	0.30556510695
0	40	3	0.049634348903
0	63	5	0.190030136828
0	73	6	0.266807005357
0	102	8	0.315261669473
0	115	9	0.528060529491
0	162	11	0.098047988618
0	162	11	0.649096475288
0	175	12	0.121041562225
0	194	13	0.082882261561
0	213	14	0.022234900956
0	213	14	0.597754097839
0	226	15	0.669075761818
0	249	17	0.387166670689
0	249	17	0.445551339782
0	309	20	0.072254390761
0	328	21	0.270296144971
0	328	21	0.753898249919
0	347	22	0.62084979672
0	360	23	0.051953679097
0	386	25	0.379742478772
0	402	26	0.627068365459
0	418	27	0.133752945338
0	418	27	0.973185798238
0	440	28	0.634880936322
0	469	30	0.036626850473
0	504	32	0.154572230733
0	504	32	0.228257586198
0	523	33	0.651833208366
0	523	33	0.74299423449
0	545	34	0.127546974404
0	545	34	0.586795111659
0	545	34	0.607220700058
0	577	36	0.340059310965
0	634	39	0.189889382289
0	675	41	0.532874269987
0	675	41	0.684105123652
0	704	43	0.492560012045
0	742	45	0.451667796133
0	791	49	0.606445926991
0	804	50	0.964736754313
0	820	51	0.359497197251
0	855	53	0.126565662731
0	855	53	0.745495122358
0	868	54	0.391601241541
0	894	56	0.875065267551
0	910	57	0.613251916403
0	910	57	0.739126325841
0	920	58	0.338024214179
0	933	59	0.31659233983
0	949	60	0.289541464288
0	949	60	0.444271144788
0	971	61	0.518706805821
0	1010	64	0.624286327834
0	1026	65	0.20292164774
0	1048	66	0.353148195351
0	1048	66	0.465094355984
0	1061	67	0.175887773092
0	1061	67	0.817582475123
0	1083	68	0.662404138909
0	1083	68	0.868607420939
0	1105	69	0.174149313157
0	1134	71	0.22977670535
0	1134	71	0.838859128533
0	1153	72	0.000115481709
0	1153	72	0.145393509001
0	1153	72	0.985728214613
0	1166	73	0.589376101831
0	1166	73	0.981146912508
0	1179	74	0.465858673319
0	1179	74	0.627995162765
0	1195	75	0.267420064069
0	1195	75	0.518861996144
0	1214	76	0.307872086701
0	1233	77	0.819315037393
0	1281	80	0.941400016115
0	1310	82	0.612486641901
0	1326	83	0.467347687201
0	1351	84	0.424083115332
0	1351	84	0.869601610383
0	1370	85	0.474588531835
0	1383	86	0.900056125094
0	1403	88	0.5737050634
0	1422	89	0.210920747702
0	1422	89	0.273036038168
0	1422	89	0.377597263943
0	1474	93	0.710707063247
0	1490	94	0.611794595696
0	1506	95	0.552960464208
0	1534	96	0.01873024642
0	1534	96	0.254936952503
0	1534	96	0.442363018521
0	1556	97	0.437297529371
0	1556	97	0.575326217799
0	1566	98	0.04825483958
0	1579	99	0.669292875297
0	1607	100	0.281129255301
0	1607	100	0.733231315526
1	20	1	25
1	30	2	4
1	40	3	57
1	63	5	73
1	73	6	1
1	102	8	22
1	115	9	20
1	162	11	42
1	162	11	75
1	175	12	11
1	194	13	22
1	213	14	21
1	213	14	39
1	226	15	45
1	249	17	15
1	249	17	40
1	309	20	27
1	328	21	67
1	328	21	23
1	347	22	3
1	360	23	64
1	386	25	61
1	402	26	2
1	418	27	70
1	418	27	52
1	440	28	30
1	469	30	25
1	504	32	8
1	504	32	63
1	523	33	34
1	523	33	44
1	545	34	21
1	545	34	38
1	545	34	49
1	577	36	50
1	634	39	22
1	675	41	55
1	675	41	29
1	704	43	1
1	742	45	65
1	791	49	19
1	804	50	64
1	820	51	38
1	855	53	57
1	855	53	57
1	868	54	72
1	894	56	38
1	910	57	34
1	910	57	47
1	920	58	2
1	933	59	75
1	949	60	33
1	949	60	17
1	971	61	17
1	1010	64	19
1	1026	65	56
1	1048	66	38
1	1048	66	14
1	1061	67	49
1	1061	67	31
1	1083	68	34
1	1083	68	62
1	1105	69	53
1	1134	71	29
1	1134	71	3
1	1153	72	49
1	1153	72	45
1	1153	72	37
1	1166	73	75
1	1166	73	60
1	1179	74	22
1	1179	74	55
1	1195	75	40
1	1195	75	57
1	1214	76	30
1	1233	77	33
1	1281	80	49
1	1310	82	10
1	1326	83	34
1	1351	84	56
1	1351	84	61
1	1370	85	12
1	1383	86	11
1	1403	88	69
1	1422	89	20
1	1422	89	45
1	1422	89	45
1	1474	93	17
1	1490	94	40
1	1506	95	51
1	1534	96	46
1	1534	96	36
1	1534	96	66
1	1556	97	2
1	1556	97	53
1	1566	98	19
1	1579	99	64
1	1607	100	21
1	1607	100	3
2	20	1	25
2	30	2	4
2	40	3	57
2	50	4	0
2	63	5	73
2	73	6	1
2	83	7	0
2	102	8	22
2	115	9	20
2	134	10	0
2	162	11	117
2	175	12	11
2	194	13	22
2	213	14	60
2	226	15	45
2	236	16	0
2	249	17	55
2	265	18	0
2	284	19	0
2	309	20	27
2	328	21	90
2	347	22	3
2	360	23	64
2	370	24	0
2	386	25	61
2	402	26	2
2	418	27	122
2	440	28	30
2	450	29	0
2	469	30	25
2	485	31	0
2	504	32	71
2	523	33	78
2	545	34	108
2	558	35	0
2	577	36	50
2	596	37	0
2	618	38	0
2	634	39	22
2	653	40	0
2	675	41	84
2	685	42	0
2	704	43	1
2	720	44	0
2	742	45	65
2	752	46	0
2	765	47	0
2	778	48	0
2	791	49	19
2	804	50	64
2	820	51	38
2	830	52	0
2	855	53	114
2	868	54	72
2	884	55	0
2	894	56	38
2	910	57	81
2	920	58	2
2	933	59	75
2	949	60	50
2	971	61	17
2	984	62	0
2	994	63	0
2	1010	64	19
2	1026	65	56
2	1048	66	52
2	1061	67	80
2	1083	68	96
2	1105	69	53
2	1115	70	0
2	1134	71	32
2	1153	72	131
2	1166	73	135
2	1179	74	77
2	1195	75	97
2	1214	76	30
2	1233	77	33
2	1255	78	0
2	1268	79	0
2	1281	80	49
2	1297	81	0
2	1310	82	10
2	1326	83	34
2	1351	84	117
2	1370	85	12
2	1383	86	11
2	1390	87	0
2	1403	88	69
2	1422	89	110
2	1435	90	0
2	1442	91	0
2	1458	92	0
2	1474	93	17
2	1490	94	40
2	1506	95	51
2	1534	96	148
2	1556	97	55
2	1566	98	19
2	1579	99	64
2	1607	100	24
3	21	1	0.460394173488
3	84	7	0.587669312507
3	103	8	0.313544074347
3	163	11	0.119830520328
3	163	11	0.479843268184
3	163	11	0.616951848777
3	163	11	0.6170662364
3	266	18	0.012006635765
3	266	18	0.170716232991
3	285	19	0.140675794912
3	285	19	0.645818805586
3	285	19	0.742702678089
3	310	20	0.019707524355
3	310	20	0.443684003162
3	310	20	0.934561160948
3	348	22	0.406361646037
3	348	22	0.911814178509
3	387	25	0.664665630365
3	403	26	0.890705860089
3	419	27	0.017882193218
3	441	28	0.098723621934
3	441	28	0.474542814592
3	470	30	0.199354220648
3	470	30	0.942843911326
3	486	31	0.384626349544
3	486	31	0.970629814055
3	524	33	0.019113203328
3	524	33	0.279929053267
3	546	34	0.22688532326
3	546	34	0.991343575711
3	559	35	0.11680500471
3	619	38	0.1237474747
3	619	38	0.663838524489
3	635	39	0.512724263692
3	654	40	0.13137172097
3	654	40	0.694716952312
3	676	41	0.980098803298
3	705	43	0.181120192015
3	721	44	0.96034697513
3	743	45	0.453514226137
3	766	47	0.840346534878
3	779	48	0.581669323703
3	821	51	0.131442236417
3	856	53	0.034689015698
3	856	53	0.132082254823
3	856	53	0.508120877238
3	885	55	0.125857808019
3	885	55	0.855985513154
3	911	57	0.03524088506
3	934	59	0.032610407984
3	985	62	0.78255453877
3	995	63	0.015603320178
3	1011	64	0.926723791587
3	1027	65	0.11725950181
3	1027	65	0.157097380965
3	1049	66	0.551166046207
3	1049	66	0.61223666437
3	1049	66	0.798361953328
3	1084	68	0.446263061577
3	1106	69	0.232473678487
3	1106	69	0.335999030643
3	1116	70	0.333370597075
3	1135	71	0.786731904988
3	1154	72	0.673044277221
3	1196	75	0.505585354768
3	1215	76	0.213137686152
3	1215	76	0.974917708707
3	1234	77	0.993050841436
3	1256	78	0.094735959639
3	1256	78	0.473825434044
3	1256	78	0.815794250517
3	1269	79	0.941444755282
3	1282	80	0.781485886961
3	1298	81	0.252177728273
3	1327	83	0.452633999274
3	1352	84	0.867462466758
3	1352	84	0.90223126682
3	1352	84	0.920688844819
3	1371	85	0.480590689401
3	1384	86	0.502344807808
3	1436	90	0.005034139455
3	1459	92	0.924352949443
3	1475	93	0.190841510927
3	1475	93	0.5453691883
3	1491	94	0.270887195159
3	1491	94	0.861720597865
3	1535	96	0.277330411848
3	1535	96	0.353525054907
3	1535	96	0.462476467999
3	1535	96	0.713665323531
3	1557	97	0.049873492974
3	1557	97	0.683316050864
3	1608	100	0.208702736246
3	1608	100	0.55629638776
3	1608	100	0.65741287645
4	21	1	47
4	84	7	56
4	103	8	70
4	163	11	10
4	163	11	51
4	163	11	73
4	163	11	2
4	266	18	56
4	266	18	59
4	285	19	37
4	285	19	58
4	285	19	56
4	310	20	39
4	310	20	45
4	310	20	51
4	348	22	4
4	348	22	53
4	387	25	1
4	403	26	56
4	419	27	22
4	441	28	74
4	441	28	22
4	470	30	57
4	470	30	39
4	486	31	47
4	486	31	67
4	524	33	9
4	524	33	31
4	546	34	67
4	546	34	50
4	559	35	59
4	619	38	41
4	619	38	33
4	635	39	43
4	654	40	34
4	654	40	46
4	676	41	33
4	705	43	29
4	721	44	4
4	743	45	58
4	766	47	51
4	779	48	18
4	821	51	74
4	856	53	24
4	856	53	49
4	856	53	60
4	885	55	68
4	885	55	23
4	911	57	63
4	934	59	63
4	985	62	24
4	995	63	57
4	1011	64	71
4	1027	65	74
4	1027	65	72
4	1049	66	37
4	1049	66	54
4	1049	66	56
4	1084	68	60
4	1106	69	9
4	1106	69	52
4	1116	70	38
4	1135	71	73
4	1154	72	60
4	1196	75	55
4	1215	76	5
4	1215	76	31
4	1234	77	55
4	1256	78	41
4	1256	78	32
4	1256	78	9
4	1269	79	18
4	1282	80	10
4	1298	81	54
4	1327	83	69
4	1352	84	4
4	1352	84	60
4	1352	84	63
4	1371	85	5
4	1384	86	40
4	1436	90	55
4	1459	92	71
4	1475	93	68
4	1475	93	41
4	1491	94	23
4	1491	94	54
4	1535	96	44
4	1535	96	61
4	1535	96	28
4	1535	96	18
4	1557	97	14
4	1557	97	16
4	1608	100	8
4	1608	100	11
4	1608	100	1
5	21	1	47
5	31	2	0
5	41	3	0
5	51	4	0
5	64	5	0
5	74	6	0
5	84	7	56
5	103	8	70
5	116	9	0
5	135	10	0
5	163	11	136
5	176	12	0
5	195	13	0
5	214	14	0
5	227	15	0
5	237	16	0
5	250	17	0
5	266	18	115
5	285	19	151
5	310	20	135
5	329	21	0
5	348	22	57
5	361	23	0
5	371	24	0
5	387	25	1
5	403	26	56
5	419	27	22
5	441	28	96
5	451	29	0
5	470	30	96
5	486	31	114
5	505	32	0
5	524	33	40
5	546	34	117
5	559	35	59
5	578	36	0
5	597	37	0
5	619	38	74
5	635	39	43
5	654	40	80
5	676	41	33
5	686	42	0
5	705	43	29
5	721	44	4
5	743	45	58
5	753	46	0
5	766	47	51
5	779	48	18
5	792	49	0
5	805	50	0
5	821	51	74
5	831	52	0
5	856	53	133
5	869	54	0
5	885	55	91
5	895	56	0
5	911	57	63
5	921	58	0
5	934	59	63
5	950	60	0
5	972	61	0
5	985	62	24
5	995	63	57
5	1011	64	71
5	1027	65	146
5	1049	66	147
5	1062	67	0
5	1084	68	60
5	1106	69	61
5	1116	70	38
5	1135	71	73
5	1154	72	60
5	1167	73	0
5	1180	74	0
5	1196	75	55
5	1215	76	36
5	1234	77	55
5	1256	78	82
5	1269	79	18
5	1282	80	10
5	1298	81	54
5	1311	82	0
5	1327	83	69
5	1352	84	127
5	1371	85	5
5	1384	86	40
5	1391	87	0
5	1404	88	0
5	1423	89	0
5	1436	90	55
5	1443	91	0
5	1459	92	71
5	1475	93	109
5	1491	94	77
5	1507	95	0
5	1535	96	151
5	1557	97	30
5	1567	98	0
5	1580	99	0
5	1608	100	20
6	22	1	0.19637188925
6	22	1	0.222640126097
6	22	1	0.427308010373
6	52	4	0.514853628794
6	65	5	0.717095704894
6	104	8	0.194251014094
6	104	8	0.765751332217
6	117	9	0.531149708956
6	136	10	0.030618708202
6	136	10	0.198359099392
6	136	10	0.599336522716
6	136	10	0.985788191738
6	164	11	0.80164741347
6	177	12	0.601458476897
6	196	13	0.151832191424
6	196	13	0.508013938829
6	196	13	0.635791111755
6	215	14	0.177528206939
6	215	14	0.48790217256
6	228	15	0.175849151221
6	238	16	0.20527689308
6	267	18	0.500281798959
6	286	19	0.747082890449
6	311	20	0.453607104593
6	311	20	0.598147378712
6	330	21	0.042654494916
6	330	21	0.763333456234
6	349	22	0.158838264493
6	362	23	0.954958147532
6	372	24	0.682869833405
6	388	25	0.144192540641
6	404	26	0.845115010595
6	442	28	0.131020750022
6	442	28	0.921135579425
6	452	29	0.449333966718
6	471	30	0.926253841491
6	487	31	0.051798454771
6	506	32	0.774021733929
6	506	32	0.857018059435
6	560	35	0.279642453603
6	579	36	0.156007942758
6	579	36	0.223523160412
6	579	36	0.575947664398
6	598	37	0.032654299017
6	598	37	0.134167692708
6	598	37	0.257684623803
6	598	37	0.816514799934
6	620	38	0.014300574961
6	620	38	0.69609201258
6	620	38	0.832094996207
6	636	39	0.106113648321
6	655	40	0.015745017955
6	655	40	0.271943931404
6	677	41	0.651820231641
6	677	41	0.764928108131
6	687	42	0.19299312754
6	706	43	0.083027455539
6	706	43	0.944139119034
6	722	44	0.468801258751
6	722	44	0.652511756998
6	744	45	0.154734097892
6	744	45	0.38005906046
6	744	45	0.838088853436
6	754	46	0.522355373657
6	767	47	0.499573691886
6	780	48	0.43748757946
6	793	49	0.777640094803
6	806	50	0.202169973993
6	822	51	0.498494127155
6	832	52	0.410638392205
6	857	53	0.921423155345
6	870	54	0.972015838493
6	886	55	0.39389512003
6	951	60	0.699675452563
6	973	61	0.366991408062
6	973	61	0.527823267773
6	973	61	0.704916838193
6	973	61	0.832164925578
6	986	62	0.160507642186
6	1012	64	0.248063959788
6	1085	68	0.196018638329
6	1085	68	0.908401401679
6	1107	69	0.25788736208
6	1107	69	0.502854729679
6	1136	71	0.054966057198
6	1216	76	0.054336748391
6	1235	77	0.257602562715
6	1235	77	0.636373376795
6	1257	78	0.120857472775
6	1257	78	0.420252098213
6	1270	79	0.563034639095
6	1299	81	0.332607804986
6	1299	81	0.906634644045
6	1312	82	0.896154421579
6	1328	83	0.397545698175
6	1353	84	0.76672993318
6	1372	85	0.679267976739
6	1372	85	0.99971191049
6	1405	88	0.605742312014
6	1424	89	0.005262213771
6	1437	90	0.21954315877
6	1460	92	0.451128806315
6	1460	92	0.536790099586
6	1508	95	0.036630294546
6	1508	95	0.492876821404
6	1558	97	0.305676315096
6	1581	99	0.402870181135
6	1609	100	0.157637791992
6	1609	100	0.678976902879
7	22	1	74
7	22	1	17
7	22	1	62
7	52	4	9
7	65	5	63
7	104	8	31
7	104	8	28
7	117	9	8
7	136	10	45
7	136	10	28
7	136	10	54
7	136	10	16
7	164	11	66
7	177	12	48
7	196	13	10
7	196	13	19
7	196	13	31
7	215	14	63
7	215	14	42
7	228	15	2
7	238	16	17
7	267	18	6
7	286	19	59
7	311	20	5
7	311	20	1
7	330	21	52
7	330	21	37
7	349	22	28
7	362	23	32
7	372	24	3
7	388	25	69
7	404	26	39
7	442	28	19
7	442	28	20
7	452	29	8
7	471	30	31
7	487	31	63
7	506	32	68
7	506	32	12
7	560	35	66
7	579	36	28
7	579	36	4
7	579	36	56
7	598	37	17
7	598	37	8
7	598	37	34
7	598	37	30
7	620	38	10
7	620	38	32
7	620	38	15
7	636	39	39
7	655	40	17
7	655	40	48
7	677	41	35
7	677	41	6
7	687	42	46
7	706	43	25
7	706	43	60
7	722	44	32
7	722	44	14
7	744	45	6
7	744	45	45
7	744	45	33
7	754	46	15
7	767	47	48
7	780	48	1
7	793	49	8
7	806	50	17
7	822	51	65
7	832	52	9
7	857	53	45
7	870	54	38
7	886	55	6
7	951	60	23
7	973	61	30
7	973	61	61
7	973	61	70
7	973	61	53
7	986	62	71
7	1012	64	36
7	1085	68	50
7	1085	68	21
7	1107	69	33
7	1107	69	73
7	1136	71	14
7	1216	76	19
7	1235	77	23
7	1235	77	53
7	1257	78	50
7	1257	78	59
7	1270	79	5
7	1299	81	42
7	1299	81	37
7	1312	82	21
7	1328	83	33
7	1353	84	11
7	1372	85	16
7	1372	85	32
7	1405	88	23
7	1424	89	71
7	1437	90	10
7	1460	92	15
7	1460	92	64
7	1508	95	58
7	1508	95	67
7	1558	97	20
7	1581	99	65
7	1609	100	9
7	1609	100	9
8	22	1	153
8	32	2	0
8	42	3	0
8	52	4	9
8	65	5	63
8	75	6	0
8	85	7	0
8	104	8	59
8	117	9	8
8	136	10	143
8	164	11	66
8	177	12	48
8	196	13	60
8	215	14	105
8	228	15	2
8	238	16	17
8	251	17	0
8	267	18	6
8	286	19	59
8	311	20	6
8	330	21	89
8	349	22	28
8	362	23	32
8	372	24	3
8	388	25	69
8	404	26	39
8	420	27	0
8	442	28	39
8	452	29	8
8	471	30	31
8	487	31	63
8	506	32	80
8	525	33	0
8	547	34	0
8	560	35	66
8	579	36	88
8	598	37	89
8	620	38	57
8	636	39	39
8	655	40	65
8	677	41	41
8	687	42	46
8	706	43	85
8	722	44	46
8	744	45	84
8	754	46	15
8	767	47	48
8	780	48	1
8	793	49	8
8	806	50	17
8	822	51	65
8	832	52	9
8	857	53	45
8	870	54	38
8	886	55	6
8	896	56	0
8	912	57	0
8	922	58	0
8	935	59	0
8	951	60	23
8	973	61	214
8	986	62	71
8	996	63	0
8	1012	64	36
8	1028	65	0
8	1050	66	0
8	1063	67	0
8	1085	68	71
8	1107	69	106
8	1117	70	0
8	1136	71	14
8	1155	72	0
8	1168	73	0
8	1181	74	0
8	1197	75	0
8	1216	76	19
8	1235	77	76
8	1257	78	109
8	1270	79	5
8	1283	80	0
8	1299	81	79
8	1312	82	21
8	1328	83	33
8	1353	84	11
8	1372	85	48
8	1385	86	0
8	1392	87	0
8	1405	88	23
8	1424	89	71
8	1437	90	10
8	1444	91	0
8	1460	92	79
8	1476	93	0
8	1492	94	0
8	1508	95	125
8	1536	96	0
8	1558	97	20
8	1568	98	0
8	1581	99	65
8	1609	100	18

