version 2
run General-0-20200910-16:50:26-19492
attr configname General
attr datetime 20200910-16:50:26
attr experiment General
attr inifile FairNetworkConf.ini
attr iterationvars "$simulationTime=2000s, $nUser=30, $0=1"
attr iterationvarsf simulationTime=2000s,nUser=30,1-
attr measurement "$simulationTime=2000s, $nUser=30, $0=1"
attr network FairNetwork
attr processid 19492
attr repetition 0
attr replication #0
attr resultdir results
attr runnumber 0
attr seedset 0
itervar nUser 30
itervar simulationTime 2000s
param **.NUM_USER 30
param **.TIMESLOT 1800ms
param **.packetGenerator.senders[*].lambda 1

vector 0 FairNetwork.user[0] packetDelayStat:vector ETV
attr "" ""
attr source packetDelay
attr title "Packet delay, vector"
vector 1 FairNetwork.user[0] packetBytesStat:vector ETV
attr "" ""
attr source packetBytes
attr title "Packet bytes, vector"
vector 2 FairNetwork.user[0] userThroughputStat:vector ETV
attr "" ""
attr source userThroughput
attr title "User throughput, vector"
vector 3 FairNetwork.user[1] packetDelayStat:vector ETV
attr "" ""
attr source packetDelay
attr title "Packet delay, vector"
vector 4 FairNetwork.user[1] packetBytesStat:vector ETV
attr "" ""
attr source packetBytes
attr title "Packet bytes, vector"
vector 5 FairNetwork.user[1] userThroughputStat:vector ETV
attr "" ""
attr source userThroughput
attr title "User throughput, vector"
vector 6 FairNetwork.user[2] packetDelayStat:vector ETV
attr "" ""
attr source packetDelay
attr title "Packet delay, vector"
vector 7 FairNetwork.user[2] packetBytesStat:vector ETV
attr "" ""
attr source packetBytes
attr title "Packet bytes, vector"
vector 8 FairNetwork.user[2] userThroughputStat:vector ETV
attr "" ""
attr source userThroughput
attr title "User throughput, vector"
vector 9 FairNetwork.user[3] packetDelayStat:vector ETV
attr "" ""
attr source packetDelay
attr title "Packet delay, vector"
vector 10 FairNetwork.user[3] packetBytesStat:vector ETV
attr "" ""
attr source packetBytes
attr title "Packet bytes, vector"
vector 11 FairNetwork.user[3] userThroughputStat:vector ETV
attr "" ""
attr source userThroughput
attr title "User throughput, vector"
vector 12 FairNetwork.user[4] userThroughputStat:vector ETV
attr "" ""
attr source userThroughput
attr title "User throughput, vector"
vector 13 FairNetwork.user[5] packetDelayStat:vector ETV
attr "" ""
attr source packetDelay
attr title "Packet delay, vector"
vector 14 FairNetwork.user[5] packetBytesStat:vector ETV
attr "" ""
attr source packetBytes
attr title "Packet bytes, vector"
vector 15 FairNetwork.user[5] userThroughputStat:vector ETV
attr "" ""
attr source userThroughput
attr title "User throughput, vector"
vector 16 FairNetwork.user[6] userThroughputStat:vector ETV
attr "" ""
attr source userThroughput
attr title "User throughput, vector"
vector 17 FairNetwork.user[7] packetDelayStat:vector ETV
attr "" ""
attr source packetDelay
attr title "Packet delay, vector"
vector 18 FairNetwork.user[7] packetBytesStat:vector ETV
attr "" ""
attr source packetBytes
attr title "Packet bytes, vector"
vector 19 FairNetwork.user[7] userThroughputStat:vector ETV
attr "" ""
attr source userThroughput
attr title "User throughput, vector"
vector 20 FairNetwork.user[8] userThroughputStat:vector ETV
attr "" ""
attr source userThroughput
attr title "User throughput, vector"
vector 21 FairNetwork.user[9] packetDelayStat:vector ETV
attr "" ""
attr source packetDelay
attr title "Packet delay, vector"
vector 22 FairNetwork.user[9] packetBytesStat:vector ETV
attr "" ""
attr source packetBytes
attr title "Packet bytes, vector"
vector 23 FairNetwork.user[9] userThroughputStat:vector ETV
attr "" ""
attr source userThroughput
attr title "User throughput, vector"
vector 24 FairNetwork.user[10] packetDelayStat:vector ETV
attr "" ""
attr source packetDelay
attr title "Packet delay, vector"
vector 25 FairNetwork.user[10] packetBytesStat:vector ETV
attr "" ""
attr source packetBytes
attr title "Packet bytes, vector"
vector 26 FairNetwork.user[10] userThroughputStat:vector ETV
attr "" ""
attr source userThroughput
attr title "User throughput, vector"
vector 27 FairNetwork.user[11] packetDelayStat:vector ETV
attr "" ""
attr source packetDelay
attr title "Packet delay, vector"
vector 28 FairNetwork.user[11] packetBytesStat:vector ETV
attr "" ""
attr source packetBytes
attr title "Packet bytes, vector"
vector 29 FairNetwork.user[11] userThroughputStat:vector ETV
attr "" ""
attr source userThroughput
attr title "User throughput, vector"
vector 30 FairNetwork.user[12] packetDelayStat:vector ETV
attr "" ""
attr source packetDelay
attr title "Packet delay, vector"
vector 31 FairNetwork.user[12] packetBytesStat:vector ETV
attr "" ""
attr source packetBytes
attr title "Packet bytes, vector"
vector 32 FairNetwork.user[12] userThroughputStat:vector ETV
attr "" ""
attr source userThroughput
attr title "User throughput, vector"
vector 33 FairNetwork.user[13] packetDelayStat:vector ETV
attr "" ""
attr source packetDelay
attr title "Packet delay, vector"
vector 34 FairNetwork.user[13] packetBytesStat:vector ETV
attr "" ""
attr source packetBytes
attr title "Packet bytes, vector"
vector 35 FairNetwork.user[13] userThroughputStat:vector ETV
attr "" ""
attr source userThroughput
attr title "User throughput, vector"
vector 36 FairNetwork.user[14] packetDelayStat:vector ETV
attr "" ""
attr source packetDelay
attr title "Packet delay, vector"
vector 37 FairNetwork.user[14] packetBytesStat:vector ETV
attr "" ""
attr source packetBytes
attr title "Packet bytes, vector"
vector 38 FairNetwork.user[14] userThroughputStat:vector ETV
attr "" ""
attr source userThroughput
attr title "User throughput, vector"
vector 39 FairNetwork.user[15] userThroughputStat:vector ETV
attr "" ""
attr source userThroughput
attr title "User throughput, vector"
vector 40 FairNetwork.user[16] packetDelayStat:vector ETV
attr "" ""
attr source packetDelay
attr title "Packet delay, vector"
vector 41 FairNetwork.user[16] packetBytesStat:vector ETV
attr "" ""
attr source packetBytes
attr title "Packet bytes, vector"
vector 42 FairNetwork.user[16] userThroughputStat:vector ETV
attr "" ""
attr source userThroughput
attr title "User throughput, vector"
vector 43 FairNetwork.user[17] packetDelayStat:vector ETV
attr "" ""
attr source packetDelay
attr title "Packet delay, vector"
vector 44 FairNetwork.user[17] packetBytesStat:vector ETV
attr "" ""
attr source packetBytes
attr title "Packet bytes, vector"
vector 45 FairNetwork.user[17] userThroughputStat:vector ETV
attr "" ""
attr source userThroughput
attr title "User throughput, vector"
vector 46 FairNetwork.user[18] packetDelayStat:vector ETV
attr "" ""
attr source packetDelay
attr title "Packet delay, vector"
vector 47 FairNetwork.user[18] packetBytesStat:vector ETV
attr "" ""
attr source packetBytes
attr title "Packet bytes, vector"
vector 48 FairNetwork.user[18] userThroughputStat:vector ETV
attr "" ""
attr source userThroughput
attr title "User throughput, vector"
vector 49 FairNetwork.user[19] packetDelayStat:vector ETV
attr "" ""
attr source packetDelay
attr title "Packet delay, vector"
vector 50 FairNetwork.user[19] packetBytesStat:vector ETV
attr "" ""
attr source packetBytes
attr title "Packet bytes, vector"
vector 51 FairNetwork.user[19] userThroughputStat:vector ETV
attr "" ""
attr source userThroughput
attr title "User throughput, vector"
vector 52 FairNetwork.user[20] packetDelayStat:vector ETV
attr "" ""
attr source packetDelay
attr title "Packet delay, vector"
vector 53 FairNetwork.user[20] packetBytesStat:vector ETV
attr "" ""
attr source packetBytes
attr title "Packet bytes, vector"
vector 54 FairNetwork.user[20] userThroughputStat:vector ETV
attr "" ""
attr source userThroughput
attr title "User throughput, vector"
vector 55 FairNetwork.user[21] packetDelayStat:vector ETV
attr "" ""
attr source packetDelay
attr title "Packet delay, vector"
vector 56 FairNetwork.user[21] packetBytesStat:vector ETV
attr "" ""
attr source packetBytes
attr title "Packet bytes, vector"
vector 57 FairNetwork.user[21] userThroughputStat:vector ETV
attr "" ""
attr source userThroughput
attr title "User throughput, vector"
vector 58 FairNetwork.user[22] packetDelayStat:vector ETV
attr "" ""
attr source packetDelay
attr title "Packet delay, vector"
vector 59 FairNetwork.user[22] packetBytesStat:vector ETV
attr "" ""
attr source packetBytes
attr title "Packet bytes, vector"
vector 60 FairNetwork.user[22] userThroughputStat:vector ETV
attr "" ""
attr source userThroughput
attr title "User throughput, vector"
vector 61 FairNetwork.user[23] userThroughputStat:vector ETV
attr "" ""
attr source userThroughput
attr title "User throughput, vector"
vector 62 FairNetwork.user[24] userThroughputStat:vector ETV
attr "" ""
attr source userThroughput
attr title "User throughput, vector"
vector 63 FairNetwork.user[25] userThroughputStat:vector ETV
attr "" ""
attr source userThroughput
attr title "User throughput, vector"
vector 64 FairNetwork.user[26] userThroughputStat:vector ETV
attr "" ""
attr source userThroughput
attr title "User throughput, vector"
vector 65 FairNetwork.user[27] userThroughputStat:vector ETV
attr "" ""
attr source userThroughput
attr title "User throughput, vector"
vector 66 FairNetwork.user[28] userThroughputStat:vector ETV
attr "" ""
attr source userThroughput
attr title "User throughput, vector"
vector 67 FairNetwork.user[29] userThroughputStat:vector ETV
attr "" ""
attr source userThroughput
attr title "User throughput, vector"
vector 68 FairNetwork.user[4] packetDelayStat:vector ETV
attr "" ""
attr source packetDelay
attr title "Packet delay, vector"
vector 69 FairNetwork.user[4] packetBytesStat:vector ETV
attr "" ""
attr source packetBytes
attr title "Packet bytes, vector"
vector 70 FairNetwork.user[6] packetDelayStat:vector ETV
attr "" ""
attr source packetDelay
attr title "Packet delay, vector"
vector 71 FairNetwork.user[6] packetBytesStat:vector ETV
attr "" ""
attr source packetBytes
attr title "Packet bytes, vector"
vector 72 FairNetwork.user[8] packetDelayStat:vector ETV
attr "" ""
attr source packetDelay
attr title "Packet delay, vector"
vector 73 FairNetwork.user[8] packetBytesStat:vector ETV
attr "" ""
attr source packetBytes
attr title "Packet bytes, vector"
vector 74 FairNetwork.user[15] packetDelayStat:vector ETV
attr "" ""
attr source packetDelay
attr title "Packet delay, vector"
vector 75 FairNetwork.user[15] packetBytesStat:vector ETV
attr "" ""
attr source packetBytes
attr title "Packet bytes, vector"
vector 76 FairNetwork.user[23] packetDelayStat:vector ETV
attr "" ""
attr source packetDelay
attr title "Packet delay, vector"
vector 77 FairNetwork.user[23] packetBytesStat:vector ETV
attr "" ""
attr source packetBytes
attr title "Packet bytes, vector"
vector 78 FairNetwork.user[24] packetDelayStat:vector ETV
attr "" ""
attr source packetDelay
attr title "Packet delay, vector"
vector 79 FairNetwork.user[24] packetBytesStat:vector ETV
attr "" ""
attr source packetBytes
attr title "Packet bytes, vector"
vector 80 FairNetwork.user[25] packetDelayStat:vector ETV
attr "" ""
attr source packetDelay
attr title "Packet delay, vector"
vector 81 FairNetwork.user[25] packetBytesStat:vector ETV
attr "" ""
attr source packetBytes
attr title "Packet bytes, vector"
vector 82 FairNetwork.user[26] packetDelayStat:vector ETV
attr "" ""
attr source packetDelay
attr title "Packet delay, vector"
vector 83 FairNetwork.user[26] packetBytesStat:vector ETV
attr "" ""
attr source packetBytes
attr title "Packet bytes, vector"
vector 84 FairNetwork.user[27] packetDelayStat:vector ETV
attr "" ""
attr source packetDelay
attr title "Packet delay, vector"
vector 85 FairNetwork.user[27] packetBytesStat:vector ETV
attr "" ""
attr source packetBytes
attr title "Packet bytes, vector"
vector 86 FairNetwork.user[28] packetDelayStat:vector ETV
attr "" ""
attr source packetDelay
attr title "Packet delay, vector"
vector 87 FairNetwork.user[28] packetBytesStat:vector ETV
attr "" ""
attr source packetBytes
attr title "Packet bytes, vector"
vector 88 FairNetwork.user[29] packetDelayStat:vector ETV
attr "" ""
attr source packetDelay
attr title "Packet delay, vector"
vector 89 FairNetwork.user[29] packetBytesStat:vector ETV
attr "" ""
attr source packetBytes
attr title "Packet bytes, vector"
0	173	1.8	0.10556510695
0	173	1.8	1.004125495434
0	649	5.4	0.590030136828
0	649	5.4	2.449634348903
0	1092	9	0.528060529491
0	1092	9	1.315261669473
0	1092	9	3.266807005357
0	1318	10.8	0.449096475288
0	1571	12.6	0.721041562225
0	1571	12.6	1.698047988618
0	1773	14.4	0.069075761818
0	1773	14.4	0.422234900956
0	1773	14.4	0.997754097839
0	1773	14.4	1.482882261561
0	2445	19.8	3.187166670689
0	2445	19.8	3.245551339782
0	2668	21.6	0.22084979672
0	2668	21.6	0.870296144971
0	2668	21.6	1.353898249919
0	2668	21.6	1.672254390761
0	3105	25.2	0.579742478772
0	3105	25.2	2.251953679097
0	3316	27	0.133752945338
0	3316	27	0.973185798238
0	3316	27	1.627068365459
0	3771	30.6	0.636626850473
0	3771	30.6	3.234880936322
0	4253	34.2	0.327546974404
0	4253	34.2	0.786795111659
0	4253	34.2	0.807220700058
0	4253	34.2	1.851833208366
0	4253	34.2	1.94299423449
0	4253	34.2	2.354572230733
0	4253	34.2	2.428257586198
0	5088	41.4	0.932874269987
0	5088	41.4	1.084105123652
0	5088	41.4	2.589889382289
0	5088	41.4	5.740059310965
0	5802	46.8	2.251667796133
0	5802	46.8	4.292560012045
0	6004	48.6	0.206445926991
0	6402	52.2	1.559497197251
0	6402	52.2	3.164736754313
0	6610	54	0.391601241541
0	6610	54	1.126565662731
0	6610	54	1.745495122358
0	6857	55.8	0.675065267551
0	7059	57.6	1.213251916403
0	7059	57.6	1.339126325841
0	7294	59.4	0.71659233983
0	7294	59.4	1.738024214179
0	7568	61.2	0.718706805821
0	7568	61.2	1.489541464288
0	7568	61.2	1.644271144788
0	7978	64.8	0.00292164774
0	7978	64.8	1.424286327834
0	8379	68.4	1.062404138909
0	8379	68.4	1.268607420939
0	8379	68.4	1.575887773092
0	8379	68.4	2.217582475123
0	8379	68.4	2.753148195351
0	8379	68.4	2.865094355984
0	9274	75.6	0.867420064069
0	9274	75.6	1.118861996144
0	9274	75.6	2.065858673319
0	9274	75.6	2.227995162765
0	9274	75.6	3.189376101831
0	9274	75.6	3.581146912508
0	9274	75.6	3.600115481709
0	9274	75.6	3.745393509001
0	9274	75.6	4.585728214613
0	9274	75.6	4.82977670535
0	9274	75.6	5.438859128533
0	9274	75.6	6.774149313157
0	10184	82.8	0.267347687201
0	10184	82.8	1.412486641901
0	10184	82.8	3.741400016115
0	10184	82.8	6.619315037393
0	10184	82.8	7.107872086701
0	11338	91.8	3.010920747702
0	11338	91.8	3.073036038168
0	11338	91.8	3.177597263943
0	11338	91.8	4.3737050634
0	11338	91.8	6.700056125094
0	11338	91.8	7.274588531835
0	11338	91.8	8.224083115332
0	11338	91.8	8.669601610383
0	12016	97.2	0.637297529371
0	12016	97.2	0.775326217799
0	12016	97.2	1.21873024642
0	12016	97.2	1.454936952503
0	12016	97.2	1.642363018521
0	12016	97.2	2.752960464208
0	12016	97.2	3.811794595696
0	12016	97.2	4.910707063247
0	13071	106.2	3.621210432082
0	13071	106.2	4.627081437249
0	13071	106.2	5.204405748056
0	13071	106.2	5.243588904469
0	13071	106.2	6.088016697997
0	13071	106.2	6.481129255301
0	13071	106.2	6.933231315526
0	13071	106.2	7.869292875297
0	13071	106.2	8.24825483958
0	14171	115.2	2.390071112722
0	14171	115.2	2.565984658148
0	14171	115.2	3.574003903568
0	14171	115.2	3.808305422344
0	14171	115.2	4.866131835696
0	14171	115.2	4.973766943852
0	14171	115.2	8.166713585906
0	15349	124.2	0.040719222405
0	15349	124.2	0.157674632197
0	15349	124.2	0.570175862119
0	15349	124.2	0.743303318265
0	15349	124.2	1.720167392336
0	15349	124.2	2.000444400815
0	15349	124.2	2.644225402418
0	15349	124.2	3.272166983409
0	15349	124.2	3.807231660492
0	15349	124.2	4.099312193759
0	15349	124.2	4.971228047385
0	15349	124.2	6.029970762479
0	16847	136.8	0.848978399017
0	16847	136.8	1.824080333173
0	16847	136.8	1.926225214698
0	16847	136.8	1.939889793129
0	16847	136.8	3.660221450846
0	16847	136.8	4.746490831724
0	16847	136.8	5.206504789464
0	16847	136.8	8.193694681316
0	16847	136.8	8.412575277823
0	16847	136.8	9.919210611096
0	16847	136.8	10.067922880348
0	16847	136.8	10.449478723722
0	16847	136.8	11.517550920872
0	18188	147.6	1.285690506742
0	18188	147.6	5.034721966326
0	18188	147.6	8.60831033867
0	18188	147.6	8.709345113979
0	18188	147.6	9.829159479733
0	18405	149.4	0.348032609554
0	18405	149.4	0.98036920595
0	18607	151.2	1.435449016221
0	19092	154.8	0.287716308392
0	19092	154.8	1.216194805293
0	19092	154.8	1.273521731717
0	19318	156.6	0.083357722395
0	19318	156.6	0.123334021453
0	19318	156.6	0.143524149599
0	19318	156.6	1.487769421751
0	20026	162	0.103022742488
0	20026	162	0.548442204408
0	20026	162	0.676498969719
0	20026	162	4.568069092564
0	20026	162	4.900479333528
0	21391	172.8	0.734478008368
0	21391	172.8	1.567321524434
0	21391	172.8	2.746511051499
0	21391	172.8	2.990906499581
0	21391	172.8	3.057203901063
0	21391	172.8	5.561115684148
0	21391	172.8	6.096000059905
0	21391	172.8	8.220237256907
0	21391	172.8	8.602938205769
0	21391	172.8	9.769811732318
0	21391	172.8	9.896200368743
0	21391	172.8	10.551846653107
0	21831	176.4	0.475477176576
0	21831	176.4	1.186725113793
0	21831	176.4	1.495139953891
0	21831	176.4	3.498380476398
0	22521	181.8	0.010181052775
0	22521	181.8	2.550485560734
0	22521	181.8	2.649135869152
0	22521	181.8	5.134718226129
0	23407	189	1.797111710302
0	23407	189	2.897957620393
0	23407	189	2.907358371057
0	23407	189	3.290918585156
0	23407	189	3.616259000685
0	23407	189	6.265514929361
0	23407	189	6.352285411701
0	24504	198	1.418242804811
0	24504	198	1.598495056796
0	24504	198	1.618807515592
0	24504	198	2.423604915393
0	24504	198	3.306733957352
0	24504	198	3.813934080609
0	24504	198	4.016284519176
0	24504	198	4.323802242938
0	24504	198	4.665456409964
0	24504	198	6.506738881451
0	24504	198	7.76667269156
0	24504	198	8.808453345739
0	24504	198	8.9497840593
0	25818	208.8	0.522602385531
0	25818	208.8	0.808623358039
0	25818	208.8	1.376527511519
0	25818	208.8	4.651670689234
0	25818	208.8	4.992017427469
0	25818	208.8	6.320775301219
0	25818	208.8	7.537283954656
0	25818	208.8	7.852005615511
0	25818	208.8	8.695088647659
0	25818	208.8	9.827722789631
0	25818	208.8	9.986064295862
0	25818	208.8	9.990770836354
0	25818	208.8	10.452501732398
0	27391	221.4	2.846710322225
0	27391	221.4	5.068217220699
0	27391	221.4	5.32063721359
0	27391	221.4	6.339295943609
0	27391	221.4	7.188516755173
0	27391	221.4	9.452250331034
0	27391	221.4	10.34884120182
0	27391	221.4	10.853185008408
0	27391	221.4	11.711577976237
0	28506	230.4	0.749350816925
0	28506	230.4	4.592357400169
0	28506	230.4	6.465817280026
0	28506	230.4	7.062196674356
0	28506	230.4	7.654820701808
0	28506	230.4	8.794428665341
0	28750	232.2	0.870565469042
0	28750	232.2	1.223585602316
0	28750	232.2	1.347112249678
0	29181	235.8	0.29708346156
0	29181	235.8	0.802102209315
0	29181	235.8	1.332824705932
0	29181	235.8	3.013746910478
0	29600	239.4	0.354891572578
0	29600	239.4	0.642302048648
0	29600	239.4	2.771801444716
0	30055	243	0.573786453862
0	30055	243	2.708616903845
0	30055	243	3.084355746252
0	30492	246.6	0.809416000811
0	30742	248.4	1.430033067166
0	31188	252	0.314760271596
0	31188	252	1.076628042892
0	31188	252	1.772427503792
0	31188	252	2.850262387928
0	31188	252	4.142171656729
0	31634	255.6	0.527234672263
0	31634	255.6	0.789291913938
0	32339	261	0.28633500615
0	32339	261	0.64526222202
0	32339	261	1.280389937651
0	32339	261	1.299769718999
0	32339	261	1.943874427322
0	32339	261	2.876277307729
0	32339	261	3.840730873223
0	32339	261	4.392126863357
0	32339	261	4.894437661618
0	33713	271.8	0.583123858899
0	33713	271.8	1.020151872673
0	33713	271.8	1.864040345264
0	33713	271.8	1.960963099841
0	33713	271.8	2.315187232086
0	33713	271.8	2.423734330581
0	33713	271.8	2.569308309029
0	33713	271.8	4.676755913979
0	33713	271.8	5.236716984053
0	33713	271.8	6.61969619059
0	33713	271.8	7.582071246361
0	33713	271.8	8.06570693295
0	33713	271.8	8.408306557648
0	33713	271.8	8.74797129023
0	33713	271.8	9.827291488886
0	36262	291.6	0.791170080119
0	36262	291.6	1.092735993342
0	36262	291.6	3.317650650567
0	36262	291.6	7.455460411077
0	36262	291.6	8.027921962505
0	36262	291.6	8.130242577358
0	36262	291.6	8.588415461316
0	36262	291.6	8.74070908657
0	36262	291.6	11.009343079262
0	36262	291.6	11.25942457424
0	36262	291.6	11.824035075361
0	36262	291.6	12.21116516751
0	36262	291.6	13.26701477617
0	36262	291.6	16.739550255452
0	36262	291.6	17.798559640833
0	36262	291.6	17.832763059191
0	36262	291.6	18.686842794834
0	36262	291.6	19.489394780593
0	38067	306	5.918910241094
0	38067	306	6.552372858817
0	38067	306	7.804980383729
0	38067	306	8.239326039673
0	38067	306	10.758608169756
0	38067	306	10.863490005356
0	38067	306	10.969102648985
0	38067	306	11.563176147309
0	38067	306	12.780195642646
0	38067	306	13.550272502192
0	38745	311.4	0.201739559617
0	38745	311.4	2.551916849368
0	38745	311.4	2.71378693608
0	38745	311.4	4.553519721157
0	39149	315	0.85030432726
0	39149	315	1.560222254484
0	39149	315	1.737547829629
0	39149	315	1.775830742514
0	39767	320.4	1.585863249645
0	39767	320.4	3.469792136231
0	39767	320.4	4.97961559184
0	39767	320.4	5.111799301455
0	39767	320.4	5.294337903338
0	40439	325.8	1.186150602776
0	40439	325.8	1.257825987089
0	40439	325.8	1.291612772641
0	40439	325.8	1.814482802729
0	40439	325.8	1.965273812923
0	40439	325.8	2.807154774655
0	40439	325.8	3.337157652792
0	40439	325.8	4.983876754119
0	41322	333	0.192189675291
0	41322	333	0.244102227474
0	41322	333	1.524436431286
0	41322	333	2.069293559431
0	41322	333	2.673592631279
0	41322	333	3.140865197689
0	41322	333	4.336303763971
0	41723	336.6	1.324505094293
0	41723	336.6	1.779416939085
0	42112	340.2	1.197776736397
0	42112	340.2	1.214544502389
0	42570	343.8	0.693040055315
0	42570	343.8	1.139292875834
0	42570	343.8	2.587086957822
0	42570	343.8	2.59887018974
0	42570	343.8	2.861199498906
0	43456	351	0.245469399581
0	43456	351	0.30133945247
0	43456	351	0.973799969304
0	43456	351	1.709931069291
0	43456	351	2.12454361195
0	43456	351	2.312838587169
0	43456	351	3.69912993919
0	43456	351	5.008428303213
0	44089	356.4	4.791826290927
0	44089	356.4	4.810521761348
0	44089	356.4	5.008351268807
0	44089	356.4	5.231490476908
0	44502	360	0.36555911829
0	44502	360	3.250103406697
0	44502	360	3.673760508054
0	44502	360	5.749791568497
0	44502	360	6.00329727364
0	44502	360	6.625894617618
0	44502	360	8.204307339724
0	45373	367.2	0.126295334886
0	45373	367.2	0.306252676438
0	45373	367.2	1.837083902705
0	45373	367.2	1.86944070735
0	45373	367.2	2.777404734675
0	45373	367.2	3.996201538018
0	45373	367.2	4.933340255741
0	46512	376.2	0.197234999899
0	46512	376.2	5.076367887893
0	46512	376.2	5.348035958235
0	46512	376.2	6.549006864777
0	46512	376.2	7.409930501458
0	46512	376.2	7.461613407253
0	46512	376.2	8.433095565348
0	47877	387	0.831185473469
0	47877	387	2.220862537245
0	47877	387	3.112241114155
0	47877	387	5.109413081645
0	47877	387	5.876492736217
0	47877	387	7.013089231474
0	47877	387	7.964918939016
0	47877	387	8.275886743986
0	48742	394.2	0.514966719602
0	48742	394.2	0.761825988401
0	48742	394.2	0.967858036884
0	48742	394.2	1.219456649997
0	48742	394.2	1.454981223416
0	48742	394.2	1.693734096264
0	48742	394.2	2.201599218951
0	48742	394.2	3.00957927235
0	48742	394.2	3.383465768253
0	48742	394.2	6.721400102107
0	50342	406.8	0.108485459614
0	50342	406.8	0.777599183304
0	50342	406.8	1.34749674861
0	50342	406.8	1.405569110726
0	50342	406.8	1.465350073641
0	50342	406.8	1.554504363636
0	50342	406.8	1.848012015559
0	50342	406.8	2.989149918418
0	50342	406.8	3.247162682358
0	50342	406.8	6.761641362895
0	50342	406.8	7.435885932531
0	50342	406.8	8.037564919055
0	50342	406.8	9.382912352289
0	50342	406.8	10.225891127703
0	51876	419.4	2.851793535095
0	51876	419.4	3.633769255971
0	51876	419.4	3.831736991305
0	51876	419.4	4.793176562876
0	51876	419.4	5.267592853209
0	51876	419.4	9.014287467034
0	51876	419.4	10.206145570689
0	51876	419.4	12.33481566522
0	52578	424.8	0.574069846721
0	52578	424.8	1.343189647817
0	52578	424.8	2.473545193728
0	52578	424.8	3.078126412063
0	52578	424.8	3.729357143981
0	52578	424.8	4.866895649522
0	52578	424.8	6.228827373828
0	52578	424.8	6.298445044902
0	52578	424.8	8.226805181782
0	53554	432	3.315966228241
0	53554	432	4.570169498332
0	53554	432	6.840009514116
0	54262	437.4	1.501155313079
0	54262	437.4	2.589059746693
0	54262	437.4	3.19789266043
0	54262	437.4	3.442383682473
0	54262	437.4	4.076313701867
0	54937	442.8	0.24387083432
0	54937	442.8	2.377434121795
0	54937	442.8	3.79781757738
0	54937	442.8	4.058168988927
0	54937	442.8	4.079036207537
0	54937	442.8	4.226632240428
0	54937	442.8	4.532237142242
0	55374	446.4	0.626700991356
0	55374	446.4	1.110339378846
0	55374	446.4	3.458183140275
0	56067	451.8	0.205705304401
0	56067	451.8	0.205760656296
0	56067	451.8	1.197264949193
0	56067	451.8	1.930632622361
0	56067	451.8	3.708775959195
0	56067	451.8	4.101348987383
0	56067	451.8	4.988850915867
0	56501	455.4	1.371120769703
0	56501	455.4	1.74488406352
0	56685	457.2	0.697655843942
0	56685	457.2	2.297375285782
0	56685	457.2	2.85154611483
0	57173	460.8	0.787486743658
0	57173	460.8	1.926544394331
0	57173	460.8	2.131892163067
0	57625	464.4	0.725257461356
0	57625	464.4	1.334302074065
0	58559	471.6	1.099139259902
0	58559	471.6	1.359779389278
0	58559	471.6	4.304259666701
0	58559	471.6	5.85892260451
0	58559	471.6	6.101641098182
0	58559	471.6	6.762144177931
0	59008	475.2	0.970933154507
0	59008	475.2	1.263884612994
0	59008	475.2	3.386631266936
0	59391	478.8	0.067257076895
0	59391	478.8	0.797484742134
0	59391	478.8	3.95458028355
0	59391	478.8	4.194503802986
0	60048	484.2	0.827833073753
0	60048	484.2	1.29650954973
0	60048	484.2	2.60748191789
0	60048	484.2	3.160320288542
0	60048	484.2	3.327194929775
0	60048	484.2	3.55971994816
0	60048	484.2	4.803070726109
0	60048	484.2	4.829068471302
0	61419	495	0.656603965454
0	61419	495	0.848865406296
0	61419	495	0.990507441091
0	61419	495	1.314706554577
0	61419	495	2.043230397311
0	61419	495	3.166690896859
0	61419	495	3.291723486782
0	61419	495	4.666403440584
0	61419	495	6.660442641861
0	61419	495	8.308518815022
0	61419	495	9.192304471055
0	61419	495	9.39866246466
0	61419	495	9.723878482636
0	61419	495	9.965798127407
0	61419	495	10.588627437172
0	62769	505.8	1.889619333395
0	62769	505.8	3.170043687374
0	62769	505.8	3.609499077867
0	62769	505.8	3.74283970114
0	62769	505.8	4.412380292001
0	62769	505.8	4.592654591579
0	62769	505.8	4.749130361963
0	62769	505.8	4.97837468717
0	62769	505.8	5.180833450868
0	62769	505.8	7.016096853808
0	62769	505.8	7.849475094454
0	62769	505.8	8.471512013535
0	62769	505.8	8.975791946786
0	62769	505.8	10.194791291967
0	65234	525.6	0.844212462102
0	65234	525.6	1.65535348433
0	65234	525.6	1.671919578752
0	65234	525.6	1.737032443539
0	65234	525.6	1.842719617644
0	65234	525.6	2.973638096833
0	65234	525.6	3.249166033871
0	65234	525.6	3.587320748715
0	65234	525.6	3.932840332424
0	65234	525.6	4.16749618168
0	65234	525.6	7.435992582503
0	65234	525.6	7.482680326147
0	65234	525.6	8.360895404865
0	65234	525.6	9.676521663162
0	65234	525.6	10.479913425829
0	65234	525.6	11.86322989198
0	65234	525.6	11.950338475238
0	65234	525.6	12.19553656788
0	65234	525.6	14.536028528537
0	65234	525.6	14.633196206904
0	65234	525.6	16.014159302571
0	65234	525.6	17.388502316991
0	65234	525.6	18.838057093419
0	65234	525.6	18.86898338498
0	67576	545.4	0.648512903984
0	67576	545.4	4.442536687072
0	67576	545.4	5.311102418538
0	67576	545.4	5.97591016809
0	67576	545.4	6.694156648198
0	67576	545.4	6.760248658891
0	67576	545.4	6.960690853977
0	67576	545.4	7.843571398934
0	67576	545.4	9.059261872293
0	67576	545.4	9.390171753469
0	67576	545.4	13.546142849032
0	67576	545.4	15.083971563509
0	67576	545.4	16.87396116799
0	67576	545.4	17.982370922204
0	67576	545.4	17.991653946582
0	69372	559.8	0.593320279502
0	69372	559.8	3.575520954975
0	69372	559.8	5.686409729358
0	69372	559.8	5.949986842193
0	69372	559.8	6.557266130812
0	69372	559.8	9.816187107997
0	69372	559.8	10.06260293021
0	69372	559.8	10.475332796937
0	69372	559.8	11.407944652206
0	69372	559.8	13.499501224829
0	70683	570.6	0.048234269298
0	70683	570.6	2.121995732398
0	70683	570.6	3.354876195429
0	70683	570.6	4.350339838796
0	70683	570.6	5.016182325433
0	70683	570.6	6.621641088501
0	70683	570.6	7.878878084072
0	70683	570.6	10.715518277447
0	71611	577.8	1.282404943399
0	71611	577.8	2.244416869989
0	71611	577.8	2.460513086583
0	71611	577.8	4.350614784679
0	71611	577.8	6.212046427661
0	71611	577.8	6.55879973145
0	71991	581.4	3.384837215921
0	71991	581.4	3.398162460749
0	72226	583.2	1.09864407312
0	72226	583.2	1.525179885156
0	72428	585	0.75556107403
0	72428	585	0.915895168517
0	73588	594	0.029683063083
0	73588	594	4.231542489331
0	73588	594	8.239492144205
0	73796	595.8	1.178885720724
0	74043	597.6	0.886210223982
0	74043	597.6	0.890266545303
0	74043	597.6	1.578210023764
0	74522	601.2	3.152025237964
0	74522	601.2	3.466023136027
0	74736	603	0.454056098743
0	74736	603	0.966770741373
0	74736	603	1.177304029577
0	74736	603	1.53090060484
0	74736	603	3.257533984582
0	74736	603	3.816541654573
0	74736	603	3.963766691886
0	74736	603	4.492233920188
0	75785	612	0.959712068814
0	75785	612	1.801848371651
0	75785	612	3.78373871276
0	75785	612	4.304817533845
0	75785	612	4.407785897564
0	75785	612	8.355419165123
0	75785	612	8.609430543473
0	75785	612	8.738010780749
0	76237	615.6	0.529777765781
0	76237	615.6	0.95077106383
0	76653	619.2	0.88981479888
0	76876	621	1.134520438525
0	77078	622.8	0.034171278639
0	77078	622.8	0.564132857911
0	77286	624.6	0.346741524299
0	77554	626.4	0.342545071814
0	77554	626.4	0.70183897694
0	77554	626.4	0.786418468702
0	77554	626.4	1.296409302551
0	77554	626.4	1.701592184893
0	77771	628.2	0.126945253966
0	77771	628.2	1.619577418158
0	78479	633.6	2.065567692442
0	78479	633.6	2.120475064993
0	78479	633.6	2.513977476116
0	78479	633.6	2.656102987509
0	78479	633.6	5.26267478983
0	78928	637.2	0.529596528973
0	78928	637.2	1.292020213188
0	78928	637.2	1.303513463397
0	78928	637.2	1.317560054639
0	78928	637.2	2.610707913435
0	79877	644.4	0.879315787847
0	79877	644.4	1.994203209754
0	79877	644.4	3.125581977358
0	79877	644.4	3.219456524641
0	79877	644.4	3.507969234989
0	79877	644.4	3.590831507908
0	79877	644.4	5.735216972421