file 2585105 1598975998                                         
version 2
run General-0-20200901-17:58:06-8344
attr configname General
attr datetime 20200901-17:58:06
attr experiment General
attr inifile FairNetworkConf.ini
attr iterationvars "$nUser=3, $0=0.5"
attr iterationvarsf nUser=3,0.5-
attr measurement "$nUser=3, $0=0.5"
attr network FairNetwork
attr processid 8344
attr repetition 0
attr replication #0
attr resultdir results
attr runnumber 0
attr seedset 0
itervar nUser 3
param **.NUM_USER 3
param **.packetGenerator.senders[*].lambda 0.5
param **.antenna.timeSlot 1s

vector 0 FairNetwork.user[0] packetDelayStat:vector ETV
attr "" ""
attr source packetDelay
attr title "Packet delay stat, vector"
vector 1 FairNetwork.user[1] packetDelayStat:vector ETV
attr "" ""
attr source packetDelay
attr title "Packet delay stat, vector"
vector 2 FairNetwork.user[2] packetDelayStat:vector ETV
attr "" ""
attr source packetDelay
attr title "Packet delay stat, vector"
0	941 23 27 27 2 2 1 0.408250990868 0.408250990868 0.408250990868 0.1666688715447
1	964 23 28 28 2 2 1 0.920788346976 0.920788346976 0.920788346976 0.84785117992679
2	987 67 29 29 2 2 3 0.3927437785 0.854616020746 1.692640051439 1.0828907214592
0	1054 21 44 44 4 4 1 0.6111302139 0.6111302139 0.6111302139 0.37348013834146
0	1075 23 61 61 6 6 1 0.099268697805 0.099268697805 0.099268697805 0.0098542743639004
2	1098 23 73 73 7 7 1 0.029707257587 0.029707257587 0.029707257587 0.00088252115334037
2	1121 23 90 90 9 9 1 0.434191409786 0.434191409786 0.434191409786 0.18852218033195
0	1144 24 98 98 10 10 1 0.380060273656 0.380060273656 0.380060273656 0.14444581161147
0	1168 25 115 115 12 12 1 0.533614010714 0.533614010714 0.533614010714 0.28474391243028
1	1193 25 126 126 13 13 1 0.175338625013 0.175338625013 0.175338625013 0.030743633421449
2	1218 25 144 144 15 15 1 0.531502664431 0.531502664431 0.531502664431 0.28249508229725
0	1243 25 158 158 16 16 1 0.630523338945 0.630523338945 0.630523338945 0.39755968095435
1	1268 25 159 159 16 16 1 0.627088148693 0.627088148693 0.627088148693 0.39323954623121
2	1293 25 160 160 16 16 1 0.388502028184 0.388502028184 0.388502028184 0.15093382590308
0	1318 25 171 171 17 17 1 0.056121058981 0.056121058981 0.056121058981 0.0031495732611489
2	1343 25 173 173 17 17 1 0.062299417908 0.062299417908 0.062299417908 0.0038812174716756
2	1368 50 193 193 19 19 2 0.198673045428 0.971576383472 1.1702494289 0.98343164790017
2	1418 47 206 206 20 20 2 0.0612374164 0.39671819878 0.45795561518 0.16113535041059
1	1465 50 224 224 21 21 2 0.233903697554 0.234132472799 0.468036170353 0.10952895454841
0	1515 50 239 239 22 22 2 0.196095977235 1.298192950576 1.494288927811 1.723758569213
1	1565 50 240 240 22 22 2 0.239661040656 0.959686536368 1.199347577024 0.97843566249433
2	1615 25 241 241 22 22 1 1.603294826936 1.603294826936 1.603294826936 2.5705543020797
2	1640 24 251 251 23 23 1 0.20291695379 0.20291695379 0.20291695379 0.041175290135413
0	1664 25 259 259 24 24 1 0.242083124448 0.242083124448 0.242083124448 0.058604239142506
2	1689 50 274 274 25 25 2 0.016027877654 0.271582223505 0.287610101159 0.074013796986011
0	1739 862195 285 646074 26 56012 28237 4.0642239e-005 3.765967739035 14923.29987733 11013.26616562
1	863934 856517 392 646028 36 56007 28061 5.58791e-006 3.836439495728 14784.483265444 10806.752078028
2	1720451 864652 287 646063 26 56011 28333 4.4936201e-005 3.660065692103 15451.810540562 11962.260046229

