version 2
run General-3-20200907-17:18:55-13040
attr configname General
attr datetime 20200907-17:18:55
attr experiment General
attr inifile FairNetworkConf.ini
attr iterationvars "$nUser=3, $0=1"
attr iterationvarsf nUser=3,1-
attr measurement "$nUser=3, $0=1"
attr network FairNetwork
attr processid 13040
attr repetition 3
attr replication #3
attr resultdir results
attr runnumber 3
attr seedset 3
itervar nUser 3
param **.NUM_USER 3
param **.TIMESLOT 1000ms
param **.packetGenerator.senders[*].lambda 1

vector 0 FairNetwork.user[0] userThroughputStat:vector ETV
attr "" ""
attr source userThroughput
attr title "User throughput, vector"
vector 1 FairNetwork.user[1] userThroughputStat:vector ETV
attr "" ""
attr source userThroughput
attr title "User throughput, vector"
vector 2 FairNetwork.user[2] packetDelayStat:vector ETV
attr "" ""
attr source packetDelay
attr title "Packet delay, vector"
vector 3 FairNetwork.user[2] packetBytesStat:vector ETV
attr "" ""
attr source packetBytes
attr title "Packet bytes, vector"
vector 4 FairNetwork.user[2] userThroughputStat:vector ETV
attr "" ""
attr source userThroughput
attr title "User throughput, vector"
vector 5 FairNetwork.user[0] packetDelayStat:vector ETV
attr "" ""
attr source packetDelay
attr title "Packet delay, vector"
vector 6 FairNetwork.user[0] packetBytesStat:vector ETV
attr "" ""
attr source packetBytes
attr title "Packet bytes, vector"
vector 7 FairNetwork.user[1] packetDelayStat:vector ETV
attr "" ""
attr source packetDelay
attr title "Packet delay, vector"
vector 8 FairNetwork.user[1] packetBytesStat:vector ETV
attr "" ""
attr source packetBytes
attr title "Packet bytes, vector"
0	11	1	0
0	30	2	27
0	43	3	20
0	59	4	0
0	78	5	30
0	91	6	0
0	101	7	0
0	117	8	78
0	133	9	0
0	158	10	57
0	171	11	0
0	187	12	67
0	206	13	0
0	219	14	0
0	241	15	115
0	260	16	129
0	276	17	23
0	286	18	0
0	308	19	0
0	327	20	86
0	352	21	112
0	365	22	0
0	381	23	56
0	412	24	59
0	422	25	0
0	435	26	72
0	451	27	60
0	473	28	49
0	498	29	57
0	514	30	127
0	527	31	30
0	543	32	63
0	553	33	0
0	569	34	25
0	585	35	63
0	595	36	0
0	620	37	69
0	636	38	5
0	646	39	0
0	662	40	14
0	681	41	45
0	700	42	104
0	713	43	0
0	723	44	0
0	742	45	14
0	758	46	37
0	780	47	154
0	799	48	0
0	812	49	93
0	828	50	73
0	844	51	0
0	866	52	6
0	885	53	112
0	907	54	49
0	917	55	8
0	924	56	0
0	934	57	37
0	953	58	0
0	969	59	0
0	985	60	72
0	998	61	0
0	1014	62	0
0	1027	63	0
0	1037	64	71
0	1047	65	0
0	1075	66	26
0	1097	67	55
0	1119	68	153
0	1138	69	13
0	1154	70	95
0	1173	71	18
0	1189	72	76
0	1205	73	0
0	1221	74	42
0	1240	75	0
0	1253	76	69
0	1263	77	0
0	1282	78	95
0	1295	79	64
0	1308	80	0
0	1330	81	67
0	1343	82	0
0	1353	83	0
0	1369	84	0
0	1382	85	0
0	1401	86	120
0	1426	87	16
0	1445	88	141
0	1461	89	123
0	1480	90	72
0	1496	91	158
0	1512	92	0
0	1534	93	126
0	1556	94	97
0	1569	95	33
0	1582	96	0
0	1595	97	39
0	1614	98	78
0	1624	99	32
0	1634	100	0
1	12	1	0
1	31	2	126
1	44	3	0
1	60	4	70
1	79	5	77
1	92	6	107
1	102	7	7
1	118	8	0
1	134	9	0
1	159	10	40
1	172	11	11
1	188	12	0
1	207	13	104
1	220	14	75
1	242	15	0
1	261	16	0
1	277	17	0
1	287	18	29
1	309	19	44
1	328	20	26
1	353	21	1
1	366	22	0
1	382	23	6
1	413	24	214
1	423	25	60
1	436	26	70
1	452	27	68
1	474	28	72
1	499	29	17
1	515	30	0
1	528	31	67
1	544	32	6
1	554	33	70
1	570	34	0
1	586	35	55
1	596	36	54
1	621	37	0
1	637	38	21
1	647	39	71
1	663	40	70
1	682	41	111
1	701	42	53
1	714	43	0
1	724	44	71
1	743	45	112
1	759	46	0
1	781	47	34
1	800	48	66
1	813	49	0
1	829	50	66
1	845	51	87
1	867	52	62
1	886	53	62
1	908	54	0
1	918	55	0
1	925	56	0
1	935	57	0
1	954	58	21
1	970	59	0
1	986	60	0
1	999	61	39
1	1015	62	16
1	1028	63	0
1	1038	64	0
1	1048	65	49
1	1076	66	35
1	1098	67	34
1	1120	68	56
1	1139	69	0
1	1155	70	0
1	1174	71	39
1	1190	72	0
1	1206	73	0
1	1222	74	0
1	1241	75	25
1	1254	76	0
1	1264	77	0
1	1283	78	54
1	1296	79	0
1	1309	80	70
1	1331	81	5
1	1344	82	23
1	1354	83	33
1	1370	84	65
1	1383	85	41
1	1402	86	43
1	1427	87	0
1	1446	88	26
1	1462	89	75
1	1481	90	11
1	1497	91	0
1	1513	92	0
1	1535	93	52
1	1557	94	39
1	1570	95	11
1	1583	96	30
1	1596	97	60
1	1615	98	0
1	1625	99	0
1	1635	100	0
2	13	1	0.168290343176
2	13	1	0.715352603178
2	45	3	0.059867152865
2	80	5	0.033192830276
2	119	8	0.254216371884
2	135	9	0.309360520597
2	135	9	0.597273495192
2	135	9	0.962570679407
2	160	10	0.165468433076
2	160	10	0.472534575437
2	160	10	0.663276972206
2	160	10	0.683217924255
2	173	11	0.913933313938
2	208	13	0.6080754752
2	208	13	0.9407244526
2	262	16	0.933193641118
2	278	17	0.971132664062
2	310	19	0.16199850769
2	310	19	0.33945077496
2	310	19	0.559209567469
2	354	21	0.201296713339
2	367	22	0.258600255679
2	367	22	0.76135438715
2	383	23	0.42084726207
2	414	24	0.226279675195
2	453	27	0.536906659615
2	475	28	0.053266882146
2	475	28	0.173707782988
2	475	28	0.904163035243
2	500	29	0.158238135061
2	500	29	0.897416555469
2	516	30	0.38060359663
2	545	32	0.133536525648
2	571	34	0.431731156125
2	571	34	0.775485509632
2	587	35	0.041399049665
2	622	37	0.194032687825
2	622	37	0.213650394477
2	622	37	0.395208833121
2	638	38	0.151630140951
2	664	40	0.679971659383
2	683	41	0.443772591576
2	702	42	0.408840622443
2	715	43	0.019503735134
2	715	43	0.947198484833
2	744	45	0.27630752777
2	760	46	0.591329380576
2	760	46	0.606083248802
2	782	47	0.147854839604
2	801	48	0.359124340174
2	801	48	0.3816915915
2	801	48	0.659066382978
2	868	52	0.2922121999
2	868	52	0.813741464723
2	909	54	0.019643453312
2	909	54	0.072623299097
2	909	54	0.859138595203
2	955	58	0.187245761752
2	955	58	0.282310403896
2	955	58	0.360164908351
2	971	59	0.158390651344
2	971	59	0.542672196936
2	971	59	0.783629774172
2	987	60	0.639109075439
2	987	60	0.842008879994
2	1000	61	0.596657106882
2	1016	62	0.73295657803
2	1016	62	0.972179589812
2	1029	63	0.259362536287
2	1029	63	0.416553334521
2	1077	66	0.346966911358
2	1077	66	0.364302605421
2	1077	66	0.688574679907
2	1077	66	0.69372635802
2	1077	66	0.706020418112
2	1099	67	0.117041179641
2	1099	67	0.704727481411
2	1099	67	0.992805059212
2	1121	68	0.469939219687
2	1140	69	0.588031525801
2	1140	69	0.686067425673
2	1140	69	0.795251170645
2	1156	70	0.687765908561
2	1175	71	0.312529767021
2	1175	71	0.636096809058
2	1191	72	0.591157563116
2	1207	73	0.129059903537
2	1207	73	0.230264356648
2	1207	73	0.549802457426
2	1223	74	0.532045193879
2	1242	75	0.009309115614
2	1242	75	0.070462170383
2	1242	75	0.346788657352
2	1255	76	0.780341800373
2	1265	77	0.301127302221
2	1284	78	0.199638414229
2	1297	79	0.593439145725
2	1310	80	0.000891929368
2	1332	81	0.131331353641
2	1332	81	0.620081354434
2	1345	82	0.034901343873
2	1371	84	0.727348711329
2	1384	85	0.478094062023
2	1403	86	0.509236763455
2	1428	87	0.22792166662
2	1428	87	0.494836632328
2	1428	87	0.713085349798
2	1428	87	0.788328376634
2	1482	90	0.22686838157
2	1514	92	0.334341749734
2	1514	92	0.349640820083
2	1514	92	0.79632513261
2	1536	93	0.445568330584
2	1558	94	0.176324484726
2	1616	98	0.354782395951
2	1616	98	0.789361533008
2	1636	100	0.855808577677
3	13	1	47
3	13	1	59
3	45	3	58
3	80	5	50
3	119	8	19
3	135	9	44
3	135	9	31
3	135	9	60
3	160	10	55
3	160	10	22
3	160	10	19
3	160	10	61
3	173	11	13
3	208	13	6
3	208	13	28
3	262	16	55
3	278	17	71
3	310	19	1
3	310	19	44
3	310	19	63
3	354	21	69
3	367	22	14
3	367	22	60
3	383	23	34
3	414	24	10
3	453	27	58
3	475	28	31
3	475	28	38
3	475	28	74
3	500	29	31
3	500	29	27
3	516	30	9
3	545	32	20
3	571	34	40
3	571	34	2
3	587	35	43
3	622	37	69
3	622	37	3
3	622	37	45
3	638	38	71
3	664	40	20
3	683	41	15
3	702	42	27
3	715	43	53
3	715	43	45
3	744	45	47
3	760	46	17
3	760	46	2
3	782	47	66
3	801	48	53
3	801	48	9
3	801	48	53
3	868	52	66
3	868	52	64
3	909	54	49
3	909	54	43
3	909	54	63
3	955	58	10
3	955	58	2
3	955	58	15
3	971	59	12
3	971	59	12
3	971	59	3
3	987	60	19
3	987	60	29
3	1000	61	57
3	1016	62	31
3	1016	62	54
3	1029	63	20
3	1029	63	16
3	1077	66	6
3	1077	66	69
3	1077	66	60
3	1077	66	23
3	1077	66	75
3	1099	67	68
3	1099	67	30
3	1099	67	41
3	1121	68	57
3	1140	69	13
3	1140	69	4
3	1140	69	34
3	1156	70	42
3	1175	71	50
3	1175	71	11
3	1191	72	53
3	1207	73	3
3	1207	73	25
3	1207	73	33
3	1223	74	74
3	1242	75	74
3	1242	75	70
3	1242	75	72
3	1255	76	59
3	1265	77	17
3	1284	78	50
3	1297	79	30
3	1310	80	47
3	1332	81	60
3	1332	81	44
3	1345	82	38
3	1371	84	42
3	1384	85	10
3	1403	86	40
3	1428	87	54
3	1428	87	45
3	1428	87	35
3	1428	87	60
3	1482	90	48
3	1514	92	47
3	1514	92	37
3	1514	92	27
3	1536	93	46
3	1558	94	39
3	1616	98	39
3	1616	98	59
3	1636	100	65
4	13	1	106
4	32	2	0
4	45	3	58
4	61	4	0
4	80	5	50
4	93	6	0
4	103	7	0
4	119	8	19
4	135	9	135
4	160	10	157
4	173	11	13
4	189	12	0
4	208	13	34
4	221	14	0
4	243	15	0
4	262	16	55
4	278	17	71
4	288	18	0
4	310	19	108
4	329	20	0
4	354	21	69
4	367	22	74
4	383	23	34
4	414	24	10
4	424	25	0
4	437	26	0
4	453	27	58
4	475	28	143
4	500	29	58
4	516	30	9
4	529	31	0
4	545	32	20
4	555	33	0
4	571	34	42
4	587	35	43
4	597	36	0
4	622	37	117
4	638	38	71
4	648	39	0
4	664	40	20
4	683	41	15
4	702	42	27
4	715	43	98
4	725	44	0
4	744	45	47
4	760	46	19
4	782	47	66
4	801	48	115
4	814	49	0
4	830	50	0
4	846	51	0
4	868	52	130
4	887	53	0
4	909	54	155
4	919	55	0
4	926	56	0
4	936	57	0
4	955	58	27
4	971	59	27
4	987	60	48
4	1000	61	57
4	1016	62	85
4	1029	63	36
4	1039	64	0
4	1049	65	0
4	1077	66	233
4	1099	67	139
4	1121	68	57
4	1140	69	51
4	1156	70	42
4	1175	71	61
4	1191	72	53
4	1207	73	61
4	1223	74	74
4	1242	75	216
4	1255	76	59
4	1265	77	17
4	1284	78	50
4	1297	79	30
4	1310	80	47
4	1332	81	104
4	1345	82	38
4	1355	83	0
4	1371	84	42
4	1384	85	10
4	1403	86	40
4	1428	87	194
4	1447	88	0
4	1463	89	0
4	1482	90	48
4	1498	91	0
4	1514	92	111
4	1536	93	46
4	1558	94	39
4	1571	95	0
4	1584	96	0
4	1597	97	0
4	1616	98	98
4	1626	99	0
4	1636	100	65
5	30	2	0.815421424201
5	43	3	0.550352170873
5	78	5	0.897852886685
5	117	8	0.194999345931
5	117	8	0.244355571251
5	158	10	0.949159526816
5	187	12	0.428657886737
5	187	12	0.575252321626
5	187	12	0.611549522107
5	241	15	0.04607266322
5	241	15	0.416882030138
5	241	15	0.654393671043
5	241	15	0.724091964021
5	241	15	0.902043530173
5	260	16	0.147154234691
5	260	16	0.611326254707
5	260	16	0.680489963457
5	276	17	0.009144369377
5	276	17	0.290795151622
5	327	20	0.253750919736
5	327	20	0.71570140474
5	352	21	0.01118738974
5	352	21	0.394140334685
5	352	21	0.414790493171
5	352	21	0.94620534596
5	381	23	0.429562864745
5	412	24	0.239133141451
5	412	24	0.735907814937
5	435	26	0.465701428258
5	451	27	0.888748927639
5	473	28	0.2850001322
5	498	29	0.079057281452
5	498	29	0.506905740172
5	498	29	0.783914926435
5	514	30	0.188037161315
5	514	30	0.87781691017
5	527	31	0.441693913267
5	543	32	0.589198864492
5	569	34	0.135955383506
5	585	35	0.995313022948
5	620	37	0.229514765027
5	620	37	0.267888777319
5	620	37	0.805356264642
5	636	38	0.254119973849
5	662	40	0.914917579401
5	681	41	0.215864288865
5	700	42	0.505070232302
5	700	42	0.74257622804
5	742	45	0.022310225224
5	758	46	0.056630421301
5	780	47	0.152116240313
5	780	47	0.265262678787
5	780	47	0.506500179346
5	812	49	0.10353366268
5	812	49	0.240949021454
5	828	50	0.272960402387
5	866	52	0.601712535947
5	885	53	0.305726889237
5	885	53	0.728455625776
5	885	53	0.786778837804
5	907	54	0.480567327256
5	907	54	0.953158507639
5	917	55	0.833422395331
5	934	57	0.528202128526
5	985	60	0.057331446774
5	1037	64	0.624221628567
5	1075	66	0.229415851047
5	1097	67	0.131078144231
5	1119	68	0.753302185645
5	1119	68	0.869934082418
5	1119	68	0.967751376352
5	1138	69	0.31288937708
5	1154	70	0.056351800162
5	1154	70	0.533131723648
5	1173	71	0.544579924744
5	1189	72	0.102435738022
5	1189	72	0.205624009975
5	1221	74	0.199865387365
5	1221	74	0.879579993461
5	1253	76	0.646591745661
5	1282	78	0.1374951504
5	1282	78	0.885562884267
5	1295	79	0.214267852738
5	1330	81	0.268689306291
5	1330	81	0.271122150678
5	1401	86	0.915296120075
5	1401	86	0.995466212695
5	1426	87	0.435490504356
5	1426	87	0.551499904159
5	1445	88	0.091304551595
5	1445	88	0.417568052417
5	1445	88	0.674830959748
5	1461	89	0.1920968318
5	1461	89	0.858162395462
5	1480	90	0.710408044888
5	1480	90	0.82210434309
5	1496	91	0.02893703477
5	1496	91	0.06308465676
5	1496	91	0.942504956987
5	1534	93	0.098367625766
5	1534	93	0.384868215614
5	1534	93	0.749457620005
5	1556	94	0.62408324911
5	1556	94	0.750761921955
5	1556	94	0.900143552293
5	1569	95	0.061085258198
5	1595	97	0.633365625188
5	1614	98	0.806221404782
5	1614	98	0.883742714308
5	1624	99	0.416267785968
6	30	2	27
6	43	3	20
6	78	5	30
6	117	8	58
6	117	8	20
6	158	10	57
6	187	12	16
6	187	12	50
6	187	12	1
6	241	15	3
6	241	15	61
6	241	15	26
6	241	15	13
6	241	15	12
6	260	16	41
6	260	16	71
6	260	16	17
6	276	17	22
6	276	17	1
6	327	20	48
6	327	20	38
6	352	21	67
6	352	21	10
6	352	21	1
6	352	21	34
6	381	23	56
6	412	24	18
6	412	24	41
6	435	26	72
6	451	27	60
6	473	28	49
6	498	29	17
6	498	29	10
6	498	29	30
6	514	30	57
6	514	30	70
6	527	31	30
6	543	32	63
6	569	34	25
6	585	35	63
6	620	37	5
6	620	37	43
6	620	37	21
6	636	38	5
6	662	40	14
6	681	41	45
6	700	42	73
6	700	42	31
6	742	45	14
6	758	46	37
6	780	47	55
6	780	47	32
6	780	47	67
6	812	49	23
6	812	49	70
6	828	50	73
6	866	52	6
6	885	53	74
6	885	53	34
6	885	53	4
6	907	54	28
6	907	54	21
6	917	55	8
6	934	57	37
6	985	60	72
6	1037	64	71
6	1075	66	26
6	1097	67	55
6	1119	68	51
6	1119	68	31
6	1119	68	71
6	1138	69	13
6	1154	70	24
6	1154	70	71
6	1173	71	18
6	1189	72	1
6	1189	72	75
6	1221	74	19
6	1221	74	23
6	1253	76	69
6	1282	78	56
6	1282	78	39
6	1295	79	64
6	1330	81	8
6	1330	81	59
6	1401	86	52
6	1401	86	68
6	1426	87	7
6	1426	87	9
6	1445	88	69
6	1445	88	29
6	1445	88	43
6	1461	89	56
6	1461	89	67
6	1480	90	16
6	1480	90	56
6	1496	91	75
6	1496	91	35
6	1496	91	48
6	1534	93	26
6	1534	93	27
6	1534	93	73
6	1556	94	5
6	1556	94	65
6	1556	94	27
6	1569	95	33
6	1595	97	39
6	1614	98	35
6	1614	98	43
6	1624	99	32
7	31	2	0.280856358889
7	31	2	0.692804541402
7	31	2	0.981441887031
7	60	4	0.148632162285
7	60	4	0.599580299404
7	60	4	0.68921094827
7	79	5	0.092594143872
7	79	5	0.1362843052
7	92	6	0.386450063814
7	92	6	0.497995022429
7	102	7	0.257936320368
7	159	10	0.230678723681
7	172	11	0.891173412064
7	207	13	0.106938525645
7	207	13	0.888788193422
7	220	14	0.140582500284
7	220	14	0.322482533501
7	287	18	0.623978824221
7	309	19	0.118305406674
7	309	19	0.944036319234
7	328	20	0.320331351441
7	328	20	0.97380946334
7	353	21	0.606524859678
7	382	23	0.099059845847
7	413	24	0.277504841086
7	413	24	0.654023659852
7	413	24	0.788329640943
7	413	24	0.823623194067
7	413	24	0.852250809646
7	423	25	0.893567037713
7	436	26	0.294259835441
7	452	27	0.506345755779
7	474	28	0.080593004031
7	499	29	0.301973487903
7	528	31	0.530018449284
7	544	32	0.110309898727
7	554	33	0.836338825187
7	586	35	0.559323218744
7	596	36	0.925240233871
7	637	38	0.736440092691
7	647	39	0.891936708172
7	663	40	0.561500358407
7	682	41	0.638608196569
7	682	41	0.647330399603
7	701	42	0.201003762605
7	724	44	0.66440652057
7	743	45	0.150583358425
7	743	45	0.26083618023
7	781	47	0.735919847865
7	800	48	0.354999177222
7	829	50	0.521220851719
7	829	50	0.866821027038
7	845	51	0.056983701029
7	845	51	0.302141737045
7	845	51	0.51106548997
7	867	52	0.270298875064
7	867	52	0.323262709068
7	886	53	0.641173159749
7	954	58	0.573075302283
7	999	61	0.927615206478
7	1015	62	0.311730473795
7	1048	65	0.273451052833
7	1076	66	0.077974787698
7	1098	67	0.589888046147
7	1120	68	0.25113982643
7	1174	71	0.382428042708
7	1241	75	0.098146631529
7	1283	78	0.820106112487
7	1309	80	0.654289716457
7	1331	81	0.454575469209
7	1344	82	0.878370952271
7	1354	83	0.357961719188
7	1370	84	0.376100561866
7	1370	84	0.598972564981
7	1383	85	0.715529315525
7	1402	86	0.452018151961
7	1446	88	0.725009187875
7	1462	89	0.33572168828
7	1481	90	0.655778720064
7	1535	93	0.617650757667
7	1557	94	0.159498557939
7	1570	95	0.21701743035
7	1583	96	0.714702587667
7	1583	96	0.806447617001
7	1596	97	0.10378157028
8	31	2	3
8	31	2	56
8	31	2	67
8	60	4	7
8	60	4	60
8	60	4	3
8	79	5	69
8	79	5	8
8	92	6	65
8	92	6	42
8	102	7	7
8	159	10	40
8	172	11	11
8	207	13	51
8	207	13	53
8	220	14	48
8	220	14	27
8	287	18	29
8	309	19	1
8	309	19	43
8	328	20	9
8	328	20	17
8	353	21	1
8	382	23	6
8	413	24	69
8	413	24	66
8	413	24	51
8	413	24	15
8	413	24	13
8	423	25	60
8	436	26	70
8	452	27	68
8	474	28	72
8	499	29	17
8	528	31	67
8	544	32	6
8	554	33	70
8	586	35	55
8	596	36	54
8	637	38	21
8	647	39	71
8	663	40	70
8	682	41	61
8	682	41	50
8	701	42	53
8	724	44	71
8	743	45	60
8	743	45	52
8	781	47	34
8	800	48	66
8	829	50	8
8	829	50	58
8	845	51	30
8	845	51	18
8	845	51	39
8	867	52	20
8	867	52	42
8	886	53	62
8	954	58	21
8	999	61	39
8	1015	62	16
8	1048	65	49
8	1076	66	35
8	1098	67	34
8	1120	68	56
8	1174	71	39
8	1241	75	25
8	1283	78	54
8	1309	80	70
8	1331	81	5
8	1344	82	23
8	1354	83	33
8	1370	84	11
8	1370	84	54
8	1383	85	41
8	1402	86	43
8	1446	88	26
8	1462	89	75
8	1481	90	11
8	1535	93	52
8	1557	94	39
8	1570	95	11
8	1583	96	27
8	1583	96	3
8	1596	97	60

