version 2
run General-1-20200904-16:09:03-3780
attr configname General
attr datetime 20200904-16:09:03
attr experiment General
attr inifile FairNetworkConf.ini
attr iterationvars "$nUser=15, $0=100"
attr iterationvarsf nUser=15,100-
attr measurement "$nUser=15, $0=100"
attr network FairNetwork
attr processid 3780
attr repetition 0
attr replication #0
attr resultdir results
attr runnumber 1
attr seedset 0
itervar nUser 15
param **.NUM_USER 15
param **.TIMESLOT 1000ms
param **.packetGenerator.senders[*].lambda 100

vector 0 FairNetwork.user[0] packetDelayStat:vector ETV
attr "" ""
attr source packetDelay
attr title "Packet delay, vector"
vector 1 FairNetwork.user[0] packetBytesStat:vector ETV
attr "" ""
attr source packetBytes
attr title "Packet bytes, vector"
vector 2 FairNetwork.user[0] userThroughputStat:vector ETV
attr "" ""
attr source userThroughput
attr title "User throughput, vector"
vector 3 FairNetwork.user[1] userThroughputStat:vector ETV
attr "" ""
attr source userThroughput
attr title "User throughput, vector"
vector 4 FairNetwork.user[2] userThroughputStat:vector ETV
attr "" ""
attr source userThroughput
attr title "User throughput, vector"
vector 5 FairNetwork.user[3] userThroughputStat:vector ETV
attr "" ""
attr source userThroughput
attr title "User throughput, vector"
vector 6 FairNetwork.user[4] userThroughputStat:vector ETV
attr "" ""
attr source userThroughput
attr title "User throughput, vector"
vector 7 FairNetwork.user[5] userThroughputStat:vector ETV
attr "" ""
attr source userThroughput
attr title "User throughput, vector"
vector 8 FairNetwork.user[6] userThroughputStat:vector ETV
attr "" ""
attr source userThroughput
attr title "User throughput, vector"
vector 9 FairNetwork.user[7] userThroughputStat:vector ETV
attr "" ""
attr source userThroughput
attr title "User throughput, vector"
vector 10 FairNetwork.user[8] userThroughputStat:vector ETV
attr "" ""
attr source userThroughput
attr title "User throughput, vector"
vector 11 FairNetwork.user[9] userThroughputStat:vector ETV
attr "" ""
attr source userThroughput
attr title "User throughput, vector"
vector 12 FairNetwork.user[10] userThroughputStat:vector ETV
attr "" ""
attr source userThroughput
attr title "User throughput, vector"
vector 13 FairNetwork.user[11] userThroughputStat:vector ETV
attr "" ""
attr source userThroughput
attr title "User throughput, vector"
vector 14 FairNetwork.user[12] userThroughputStat:vector ETV
attr "" ""
attr source userThroughput
attr title "User throughput, vector"
vector 15 FairNetwork.user[13] userThroughputStat:vector ETV
attr "" ""
attr source userThroughput
attr title "User throughput, vector"
vector 16 FairNetwork.user[14] userThroughputStat:vector ETV
attr "" ""
attr source userThroughput
attr title "User throughput, vector"
vector 17 FairNetwork.user[1] packetDelayStat:vector ETV
attr "" ""
attr source packetDelay
attr title "Packet delay, vector"
vector 18 FairNetwork.user[1] packetBytesStat:vector ETV
attr "" ""
attr source packetBytes
attr title "Packet bytes, vector"
vector 19 FairNetwork.user[2] packetDelayStat:vector ETV
attr "" ""
attr source packetDelay
attr title "Packet delay, vector"
vector 20 FairNetwork.user[2] packetBytesStat:vector ETV
attr "" ""
attr source packetBytes
attr title "Packet bytes, vector"
vector 21 FairNetwork.user[3] packetDelayStat:vector ETV
attr "" ""
attr source packetDelay
attr title "Packet delay, vector"
vector 22 FairNetwork.user[3] packetBytesStat:vector ETV
attr "" ""
attr source packetBytes
attr title "Packet bytes, vector"
vector 23 FairNetwork.user[4] packetDelayStat:vector ETV
attr "" ""
attr source packetDelay
attr title "Packet delay, vector"
vector 24 FairNetwork.user[4] packetBytesStat:vector ETV
attr "" ""
attr source packetBytes
attr title "Packet bytes, vector"
vector 25 FairNetwork.user[5] packetDelayStat:vector ETV
attr "" ""
attr source packetDelay
attr title "Packet delay, vector"
vector 26 FairNetwork.user[5] packetBytesStat:vector ETV
attr "" ""
attr source packetBytes
attr title "Packet bytes, vector"
vector 27 FairNetwork.user[6] packetDelayStat:vector ETV
attr "" ""
attr source packetDelay
attr title "Packet delay, vector"
vector 28 FairNetwork.user[6] packetBytesStat:vector ETV
attr "" ""
attr source packetBytes
attr title "Packet bytes, vector"
vector 29 FairNetwork.user[7] packetDelayStat:vector ETV
attr "" ""
attr source packetDelay
attr title "Packet delay, vector"
vector 30 FairNetwork.user[7] packetBytesStat:vector ETV
attr "" ""
attr source packetBytes
attr title "Packet bytes, vector"
vector 31 FairNetwork.user[8] packetDelayStat:vector ETV
attr "" ""
attr source packetDelay
attr title "Packet delay, vector"
vector 32 FairNetwork.user[8] packetBytesStat:vector ETV
attr "" ""
attr source packetBytes
attr title "Packet bytes, vector"
vector 33 FairNetwork.user[9] packetDelayStat:vector ETV
attr "" ""
attr source packetDelay
attr title "Packet delay, vector"
vector 34 FairNetwork.user[9] packetBytesStat:vector ETV
attr "" ""
attr source packetBytes
attr title "Packet bytes, vector"
vector 35 FairNetwork.user[10] packetDelayStat:vector ETV
attr "" ""
attr source packetDelay
attr title "Packet delay, vector"
vector 36 FairNetwork.user[10] packetBytesStat:vector ETV
attr "" ""
attr source packetBytes
attr title "Packet bytes, vector"
vector 37 FairNetwork.user[11] packetDelayStat:vector ETV
attr "" ""
attr source packetDelay
attr title "Packet delay, vector"
vector 38 FairNetwork.user[11] packetBytesStat:vector ETV
attr "" ""
attr source packetBytes
attr title "Packet bytes, vector"
vector 39 FairNetwork.user[12] packetDelayStat:vector ETV
attr "" ""
attr source packetDelay
attr title "Packet delay, vector"
vector 40 FairNetwork.user[12] packetBytesStat:vector ETV
attr "" ""
attr source packetBytes
attr title "Packet bytes, vector"
vector 41 FairNetwork.user[13] packetDelayStat:vector ETV
attr "" ""
attr source packetDelay
attr title "Packet delay, vector"
vector 42 FairNetwork.user[13] packetBytesStat:vector ETV
attr "" ""
attr source packetBytes
attr title "Packet bytes, vector"
vector 43 FairNetwork.user[14] packetDelayStat:vector ETV
attr "" ""
attr source packetDelay
attr title "Packet delay, vector"
vector 44 FairNetwork.user[14] packetBytesStat:vector ETV
attr "" ""
attr source packetBytes
attr title "Packet bytes, vector"
0	4538	1	0.311741493134
0	4538	1	0.326624041392
0	4538	1	0.328686074212
0	4538	1	0.331758877734
0	4538	1	0.338175824754
0	4538	1	0.343531481956
0	4538	1	0.344650943562
0	4538	1	0.35202921648
0	4538	1	0.366242863281
0	4538	1	0.395187068061
0	4538	1	0.402895414646
0	4538	1	0.404442711451
0	4538	1	0.413165923401
0	4538	1	0.423380242144
0	4538	1	0.436132519166
0	4538	1	0.43739126326
0	4538	1	0.448750652677
0	4538	1	0.463916012417
0	4538	1	0.471265656629
0	4538	1	0.477454951225
0	4538	1	0.493594971974
0	4538	1	0.509647367545
0	4538	1	0.516064459272
0	4538	1	0.554516677963
0	4538	1	0.574925600122
0	4538	1	0.595328742701
0	4538	1	0.596841051238
0	4538	1	0.611898893824
0	4538	1	0.643400593111
0	4538	1	0.661275469745
0	4538	1	0.665867951118
0	4538	1	0.666072207002
0	4538	1	0.676518332085
0	4538	1	0.677429942346
0	4538	1	0.681545722308
0	4538	1	0.682282575863
0	4538	1	0.700366268506
0	4538	1	0.726348809364
0	4538	1	0.731337529454
0	4538	1	0.739731857983
0	4538	1	0.746270683655
0	4538	1	0.753797424788
0	4538	1	0.770519536791
0	4538	1	0.786208497967
0	4538	1	0.79270296145
0	4538	1	0.797538982499
0	4538	1	0.800722543907
0	4538	1	0.833871666706
0	4538	1	0.834455513397
0	4538	1	0.856690757617
0	4538	1	0.860222349008
0	4538	1	0.865977540977
0	4538	1	0.870828822614
0	4538	1	0.881210415621
0	4538	1	0.890980479885
0	4538	1	0.896490964752
0	4538	1	0.915280605294
0	4538	1	0.923152616694
0	4538	1	0.942668070053
0	4538	1	0.951900301368
0	4538	1	0.970496343489
0	4538	1	0.983055651069
0	4538	1	0.992041254954
0	112775	25	23.778004444007
0	112775	25	23.784442254023
0	112775	25	23.790721669833
0	112775	25	23.796072316604
0	112775	25	23.798993121937
0	112775	25	23.807712280473
0	112775	25	23.818299707624
0	112775	25	23.871900711126
0	112775	25	23.87365984658
0	112775	25	23.883740039034
0	112775	25	23.886083054222
0	112775	25	23.896661318356
0	112775	25	23.897737669438
0	112775	25	23.929667135859
0	112775	25	23.974212104321
0	112775	25	23.984270814373
0	112775	25	23.990044057481
0	112775	25	23.990435889045
0	112775	25	23.99888016698
0	112775	25	24.002811292553
0	112775	25	24.007332313155
0	112775	25	24.016692928753
0	112775	25	24.020482548396
0	112775	25	24.034372975294
0	112775	25	24.035753262178
0	112775	25	24.040187302464
0	112775	25	24.042549369525
0	112775	25	24.044423630185
0	112775	25	24.055529604642
0	112775	25	24.066117945957
0	112775	25	24.077107070633
0	112775	25	24.112109207478
0	112775	25	24.112730360383
0	112775	25	24.113775972641
0	112775	25	24.125737050636
0	112775	25	24.149000561253
0	112775	25	24.15474588532
0	112775	25	24.164240831155
0	112775	25	24.168696016106
0	112775	25	24.174673476874
0	112775	25	24.186124866421
0	112775	25	24.209414000163
0	112775	25	24.238193150376
0	112775	25	24.243078720869
0	112775	25	24.252674200643
0	112775	25	24.255188619964
0	112775	25	24.264658586736
0	112775	25	24.26627995163
0	112775	25	24.275893761021
0	112775	25	24.279811469128
0	112775	25	24.28000115482
0	112775	25	24.281453935093
0	112775	25	24.289857282149
0	112775	25	24.292297767056
0	112775	25	24.298388591288
0	194093	43	41.173522854114
0	194093	43	41.182101810525
0	194093	43	41.207504855605
0	194093	43	41.208491358689
0	194093	43	41.233347182259
0	194093	43	41.240754771763
0	194093	43	41.247867251135
0	194093	43	41.250951399536
0	194093	43	41.270983804761
0	194093	43	41.279344780081
0	194093	43	41.287673215242
0	194093	43	41.299465110513
0	194093	43	41.301909064994
0	194093	43	41.302572039009
0	194093	43	41.32761115684
0	194093	43	41.332960000598
0	194093	43	41.354202372568
0	194093	43	41.358029382057
0	194093	43	41.369698117322
0	194093	43	41.370962003686
0	194093	43	41.37751846653
0	194093	43	41.381030227424
0	194093	43	41.385484422043
0	194093	43	41.386764989696
0	194093	43	41.425680690924
0	194093	43	41.429004793334
0	194093	43	41.434833577223
0	194093	43	41.435233340214
0	194093	43	41.435435241495
0	194093	43	41.448877694217
0	194093	43	41.454877163083
0	194093	43	41.464161948052
0	194093	43	41.464735217316
0	194093	43	41.502354490161
0	194093	43	41.509480326094
0	194093	43	41.515803692058
0	194093	43	41.536856905066
0	194093	43	41.574347219662
0	194093	43	41.610083103385
0	194093	43	41.611093451138
0	194093	43	41.622291594796
0	194093	43	41.640489783989
0	194093	43	41.650240803331
0	194093	43	41.651262252146
0	194093	43	41.65139889793
0	194093	43	41.668602214507
0	194093	43	41.679464908316
0	194093	43	41.684065047893
0	194093	43	41.713936946812
0	194093	43	41.716125752777
0	194093	43	41.73119210611
0	194093	43	41.732679228803
0	194093	43	41.736494787237
0	194093	43	41.747175509208
0	194093	43	41.758407192223
0	194093	43	41.759576746321
0	194093	43	41.76370175862
0	194093	43	41.765433033181
0	194093	43	41.775201673922
0	253173	56	53.508502623874
0	253173	56	53.521421716562
0	253173	56	53.530300330666
0	253173	56	53.542094160002
0	253173	56	53.575737864533
0	253173	56	53.597086169033
0	253173	56	53.600843557457
0	253173	56	53.60954891572
0	253173	56	53.612423020481
0	253173	56	53.633718014442
0	253173	56	53.64497083461
0	253173	56	53.650021022088
0	253173	56	53.655328247054
0	253173	56	53.672137469099
0	253173	56	53.686705654685
0	253173	56	53.690235856018
0	253173	56	53.691471122492
0	253173	56	53.703493508164
0	253173	56	53.741923573996
0	253173	56	53.760658172795
0	253173	56	53.766621966738
0	253173	56	53.772548207013
0	253173	56	53.783944286648
0	253173	56	53.814467103217
0	253173	56	53.836682172202
0	253173	56	53.839206372131
0	253173	56	53.849392959431
0	253173	56	53.857885167547
0	253173	56	53.880522503306
0	253173	56	53.889488412014
0	253173	56	53.89453185008
0	253173	56	53.903115779758
0	253173	56	53.917226023851
0	253173	56	53.920086233576
0	253173	56	53.925765275111
0	253173	56	53.958516706888
0	253173	56	53.96192017427
0	253173	56	53.975207753008
0	253173	56	53.987372839542
0	253173	56	53.990520056151
0	253173	56	53.998950886472
0	253173	56	54.010277227892
0	253173	56	54.011860642954
0	253173	56	54.011907708359
0	253173	56	54.016525017319
0	253173	56	54.034182428043
0	253173	56	54.035984950563
0	253173	56	54.036188075151
0	253173	56	54.044236049149
0	253173	56	54.053067339569
0	253173	56	54.058139340802
0	253173	56	54.060162845188
0	253173	56	54.063238022426
0	253173	56	54.066654564096
0	253173	56	54.085067388811
0	253173	56	54.097666726912
0	253173	56	54.108084533454
0	253173	56	54.10949784059
0	253173	56	54.1279711171
0	253173	56	54.138979576201
0	253173	56	54.139073583708
0	253173	56	54.142909185849
0	253173	56	54.146162590004
0	253173	56	54.172655149291
0	334314	74	70.86775830742
0	334314	74	70.888017395591
0	334314	74	70.911519168489
0	334314	74	70.913137869356
0	334314	74	70.931535197207
0	334314	74	70.999189102406
0	334314	74	71.005523728583
0	334314	74	71.018049803832
0	334314	74	71.022393260391
0	334314	74	71.047586081692
0	334314	74	71.048634900048
0	334314	74	71.049691026484
0	334314	74	71.055631761467
0	334314	74	71.06780195642
0	334314	74	71.075502725015
0	334314	74	71.091911700794
0	334314	74	71.094927359926
0	334314	74	71.117176506498
0	334314	74	71.158554604103
0	334314	74	71.164279219617
0	334314	74	71.165302425766
0	334314	74	71.169884154606
0	334314	74	71.171407090859
0	334314	74	71.194093430786
0	334314	74	71.196594245736
0	334314	74	71.202240350747
0	334314	74	71.206111651668
0	334314	74	71.216670147755
0	334314	74	71.251395502548
0	334314	74	71.261985596402
0	334314	74	71.262327630586
0	334314	74	71.270868427942
0	334314	74	71.2788939478
0	334314	74	71.287831238583
0	334314	74	71.292201518721
0	334314	74	71.300640403447
0	334314	74	71.301609630993
0	334314	74	71.305151872315
0	334314	74	71.3062373433
0	334314	74	71.307693083084
0	334314	74	71.328767559134
0	334314	74	71.334367169835
0	334314	74	71.3481969619
0	334314	74	71.357820712458
0	334314	74	71.362657069324
0	334314	74	71.366083065571
0	334314	74	71.369479712897
0	334314	74	71.380272914884
0	334314	74	71.392863350057
0	334314	74	71.396452622216
0	334314	74	71.402803899372
0	334314	74	71.402997697185
0	334314	74	71.409438744268
0	334314	74	71.418762773072
0	334314	74	71.428407308727
0	334314	74	71.433921268628
0	334314	74	71.438944376611
0	334314	74	71.449272346717
0	334314	74	71.451892919134
0	334314	74	71.483147602711
0	334314	74	71.490766280424
0	334314	74	71.497724275033
0	402270	89	85.303490068646
0	402270	89	85.312099305013
0	402270	89	85.312616134071
0	402270	89	85.322330955652
0	402270	89	85.329262953347
0	402270	89	85.331062526763
0	402270	89	85.346370839026
0	402270	89	85.346694407072
0	402270	89	85.355774047345
0	402270	89	85.367962015378
0	402270	89	85.377333402555
0	402270	89	85.40365559118
0	402270	89	85.432501034064
0	402270	89	85.436737605078
0	402270	89	85.457497915682
0	402270	89	85.460032972733
0	402270	89	85.466258946173
0	402270	89	85.482043073394
0	402270	89	85.483918262906
0	402270	89	85.48410521761
0	402270	89	85.486083512685
0	402270	89	85.488314904766
0	402270	89	85.492454693993
0	402270	89	85.493013394522
0	402270	89	85.49973799969
0	402270	89	85.50709931069
0	402270	89	85.511245436117
0	402270	89	85.513128385869
0	402270	89	85.526991299389
0	402270	89	85.540084283029
0	402270	89	85.56893040055
0	402270	89	85.573392928755
0	402270	89	85.587870869575
0	402270	89	85.587988701894
0	402270	89	85.590611994986
0	402270	89	85.609977767361
0	402270	89	85.610145445021
0	402270	89	85.64724505094
0	402270	89	85.651794169388
0	402270	89	85.67192189675
0	402270	89	85.672441022272
0	402270	89	85.68524436431
0	402270	89	85.690692935591
0	402270	89	85.696735926309
0	402270	89	85.701408651973
0	402270	89	85.713363037636
0	402270	89	85.753861506024
0	402270	89	85.754578259867
0	402270	89	85.754916127723
0	402270	89	85.760144828024
0	402270	89	85.761652738126
0	402270	89	85.770071547743
0	402270	89	85.775371576524
0	402270	89	85.791838767537
0	402270	89	85.811858632492
0	402270	89	85.830697921358
0	402270	89	85.845796155914
0	402270	89	85.84711799301
0	402270	89	85.848943379029
0	402270	89	85.858503043268
0	402270	89	85.86560222254
0	402270	89	85.867375478291
1	4538	1	29
1	4538	1	5
1	4538	1	71
1	4538	1	33
1	4538	1	17
1	4538	1	19
1	4538	1	24
1	4538	1	63
1	4538	1	52
1	4538	1	43
1	4538	1	3
1	4538	1	34
1	4538	1	30
1	4538	1	54
1	4538	1	50
1	4538	1	46
1	4538	1	61
1	4538	1	25
1	4538	1	8
1	4538	1	43
1	4538	1	67
1	4538	1	8
1	4538	1	5
1	4538	1	29
1	4538	1	57
1	4538	1	64
1	4538	1	23
1	4538	1	41
1	4538	1	35
1	4538	1	42
1	4538	1	71
1	4538	1	54
1	4538	1	66
1	4538	1	51
1	4538	1	35
1	4538	1	27
1	4538	1	32
1	4538	1	2
1	4538	1	50
1	4538	1	57
1	4538	1	16
1	4538	1	30
1	4538	1	61
1	4538	1	45
1	4538	1	20
1	4538	1	38
1	4538	1	40
1	4538	1	69
1	4538	1	16
1	4538	1	11
1	4538	1	63
1	4538	1	33
1	4538	1	24
1	4538	1	32
1	4538	1	18
1	4538	1	48
1	4538	1	72
1	4538	1	28
1	4538	1	29
1	4538	1	1
1	4538	1	6
1	4538	1	13
1	4538	1	73
1	112775	25	18
1	112775	25	18
1	112775	25	32
1	112775	25	58
1	112775	25	20
1	112775	25	73
1	112775	25	28
1	112775	25	28
1	112775	25	38
1	112775	25	69
1	112775	25	75
1	112775	25	66
1	112775	25	12
1	112775	25	49
1	112775	25	53
1	112775	25	4
1	112775	25	60
1	112775	25	6
1	112775	25	14
1	112775	25	69
1	112775	25	1
1	112775	25	63
1	112775	25	42
1	112775	25	28
1	112775	25	61
1	112775	25	45
1	112775	25	68
1	112775	25	64
1	112775	25	62
1	112775	25	44
1	112775	25	11
1	112775	25	9
1	112775	25	61
1	112775	25	29
1	112775	25	34
1	112775	25	35
1	112775	25	34
1	112775	25	55
1	112775	25	33
1	112775	25	20
1	112775	25	68
1	112775	25	36
1	112775	25	42
1	112775	25	53
1	112775	25	15
1	112775	25	36
1	112775	25	39
1	112775	25	47
1	112775	25	57
1	112775	25	74
1	112775	25	65
1	112775	25	55
1	112775	25	70
1	112775	25	29
1	112775	25	36
1	194093	43	60
1	194093	43	17
1	194093	43	23
1	194093	43	1
1	194093	43	40
1	194093	43	52
1	194093	43	68
1	194093	43	1
1	194093	43	33
1	194093	43	23
1	194093	43	35
1	194093	43	6
1	194093	43	46
1	194093	43	54
1	194093	43	44
1	194093	43	34
1	194093	43	6
1	194093	43	7
1	194093	43	9
1	194093	43	66
1	194093	43	69
1	194093	43	13
1	194093	43	3
1	194093	43	71
1	194093	43	60
1	194093	43	69
1	194093	43	63
1	194093	43	27
1	194093	43	10
1	194093	43	12
1	194093	43	47
1	194093	43	5
1	194093	43	56
1	194093	43	71
1	194093	43	55
1	194093	43	11
1	194093	43	41
1	194093	43	54
1	194093	43	61
1	194093	43	24
1	194093	43	18
1	194093	43	67
1	194093	43	69
1	194093	43	35
1	194093	43	44
1	194093	43	35
1	194093	43	48
1	194093	43	11
1	194093	43	58
1	194093	43	26
1	194093	43	69
1	194093	43	43
1	194093	43	36
1	194093	43	40
1	194093	43	32
1	194093	43	26
1	194093	43	49
1	194093	43	72
1	194093	43	71
1	253173	56	5
1	253173	56	28
1	253173	56	16
1	253173	56	4
1	253173	56	37
1	253173	56	27
1	253173	56	50
1	253173	56	57
1	253173	56	51
1	253173	56	5
1	253173	56	46
1	253173	56	43
1	253173	56	46
1	253173	56	26
1	253173	56	14
1	253173	56	18
1	253173	56	32
1	253173	56	8
1	253173	56	8
1	253173	56	10
1	253173	56	31
1	253173	56	72
1	253173	56	31
1	253173	56	60
1	253173	56	51
1	253173	56	42
1	253173	56	35
1	253173	56	28
1	253173	56	18
1	253173	56	51
1	253173	56	37
1	253173	56	28
1	253173	56	56
1	253173	56	7
1	253173	56	15
1	253173	56	67
1	253173	56	34
1	253173	56	21
1	253173	56	43
1	253173	56	72
1	253173	56	50
1	253173	56	25
1	253173	56	52
1	253173	56	20
1	253173	56	71
1	253173	56	40
1	253173	56	59
1	253173	56	73
1	253173	56	33
1	253173	56	12
1	253173	56	20
1	253173	56	50
1	253173	56	36
1	253173	56	68
1	253173	56	57
1	253173	56	18
1	253173	56	9
1	253173	56	56
1	253173	56	27
1	253173	56	63
1	253173	56	27
1	253173	56	49
1	253173	56	37
1	253173	56	38
1	334314	74	31
1	334314	74	42
1	334314	74	66
1	334314	74	59
1	334314	74	19
1	334314	74	15
1	334314	74	75
1	334314	74	32
1	334314	74	50
1	334314	74	16
1	334314	74	73
1	334314	74	7
1	334314	74	38
1	334314	74	70
1	334314	74	16
1	334314	74	36
1	334314	74	55
1	334314	74	60
1	334314	74	60
1	334314	74	39
1	334314	74	47
1	334314	74	12
1	334314	74	2
1	334314	74	48
1	334314	74	58
1	334314	74	59
1	334314	74	61
1	334314	74	37
1	334314	74	27
1	334314	74	43
1	334314	74	37
1	334314	74	16
1	334314	74	11
1	334314	74	39
1	334314	74	50
1	334314	74	10
1	334314	74	39
1	334314	74	54
1	334314	74	38
1	334314	74	51
1	334314	74	2
1	334314	74	13
1	334314	74	54
1	334314	74	38
1	334314	74	23
1	334314	74	49
1	334314	74	70
1	334314	74	24
1	334314	74	1
1	334314	74	53
1	334314	74	30
1	334314	74	8
1	334314	74	56
1	334314	74	24
1	334314	74	32
1	334314	74	23
1	334314	74	4
1	334314	74	11
1	334314	74	62
1	334314	74	32
1	334314	74	66
1	334314	74	40
1	402270	89	72
1	402270	89	47
1	402270	89	15
1	402270	89	58
1	402270	89	51
1	402270	89	36
1	402270	89	75
1	402270	89	65
1	402270	89	13
1	402270	89	25
1	402270	89	21
1	402270	89	23
1	402270	89	2
1	402270	89	41
1	402270	89	32
1	402270	89	30
1	402270	89	48
1	402270	89	3
1	402270	89	36
1	402270	89	43
1	402270	89	43
1	402270	89	57
1	402270	89	65
1	402270	89	32
1	402270	89	17
1	402270	89	73
1	402270	89	40
1	402270	89	38
1	402270	89	11
1	402270	89	3
1	402270	89	43
1	402270	89	36
1	402270	89	35
1	402270	89	55
1	402270	89	5
1	402270	89	57
1	402270	89	4
1	402270	89	37
1	402270	89	62
1	402270	89	58
1	402270	89	47
1	402270	89	74
1	402270	89	46
1	402270	89	40
1	402270	89	23
1	402270	89	20
1	402270	89	47
1	402270	89	19
1	402270	89	7
1	402270	89	35
1	402270	89	31
1	402270	89	49
1	402270	89	4
1	402270	89	1
1	402270	89	47
1	402270	89	12
1	402270	89	25
1	402270	89	10
1	402270	89	70
1	402270	89	39
1	402270	89	73
1	402270	89	62
2	4538	1	2312
2	9267	2	0
2	13909	3	0
2	18380	4	0
2	23181	5	0
2	27739	6	0
2	32285	7	0
2	36564	8	0
2	40906	9	0
2	45431	10	0
2	49974	11	0
2	54391	12	0
2	59012	13	0
2	63891	14	0
2	68200	15	0
2	72809	16	0
2	77388	17	0
2	81721	18	0
2	86171	19	0
2	90645	20	0
2	95359	21	0
2	99812	22	0
2	104145	23	0
2	108481	24	0
2	112775	25	2311
2	117228	26	0
2	121732	27	0
2	126308	28	0
2	130680	29	0
2	135190	30	0
2	139961	31	0
2	144369	32	0
2	148939	33	0
2	153443	34	0
2	157857	35	0
2	162271	36	0
2	166493	37	0
2	170970	38	0
2	175681	39	0
2	180377	40	0
2	184818	41	0
2	189523	42	0
2	194093	43	2296
2	198636	44	0
2	203170	45	0
2	207752	46	0
2	212295	47	0
2	216799	48	0
2	221471	49	0
2	225972	50	0
2	230536	51	0
2	235175	52	0
2	239586	53	0
2	244072	54	0
2	248603	55	0
2	253173	56	2320
2	257533	57	0
2	261995	58	0
2	266412	59	0
2	270778	60	0
2	275402	61	0
2	280005	62	0
2	284464	63	0
2	288878	64	0
2	293475	65	0
2	297934	66	0
2	302282	67	0
2	306744	68	0
2	311404	69	0
2	316049	70	0
2	320409	71	0
2	325114	72	0
2	329696	73	0
2	334314	74	2313
2	338824	75	0
2	343523	76	0
2	348033	77	0
2	352510	78	0
2	356987	79	0
2	361557	80	0
2	366109	81	0
2	370739	82	0
2	375270	83	0
2	379816	84	0
2	384254	85	0
2	388608	86	0
2	393172	87	0
2	397688	88	0
2	402270	89	2288
2	406747	90	0
2	411386	91	0
2	415992	92	0
2	420493	93	0
2	425057	94	0
2	429633	95	0
2	434497	96	0
2	439001	97	0
2	443496	98	0
2	448147	99	0
2	452675	100	0
3	4539	1	0
3	9268	2	2273
3	13910	3	0
3	18381	4	0
3	23182	5	0
3	27740	6	0
3	32286	7	0
3	36565	8	0
3	40907	9	0
3	45432	10	0
3	49975	11	0
3	54392	12	0
3	59013	13	0
3	63892	14	0
3	68201	15	0
3	72810	16	0
3	77389	17	2306
3	81722	18	0
3	86172	19	0
3	90646	20	0
3	95360	21	0
3	99813	22	0
3	104146	23	0
3	108482	24	0
3	112776	25	0
3	117229	26	0
3	121733	27	0
3	126309	28	0
3	130681	29	0
3	135191	30	0
3	139962	31	0
3	144370	32	0
3	148940	33	0
3	153444	34	0
3	157858	35	2301
3	162272	36	0
3	166494	37	0
3	170971	38	0
3	175682	39	0
3	180378	40	0
3	184819	41	0
3	189524	42	0
3	194094	43	0
3	198637	44	0
3	203171	45	0
3	207753	46	0
3	212296	47	0
3	216800	48	2323
3	221472	49	0
3	225973	50	0
3	230537	51	0
3	235176	52	0
3	239587	53	0
3	244073	54	0
3	248604	55	0
3	253174	56	0
3	257534	57	0
3	261996	58	0
3	266413	59	0
3	270779	60	0
3	275403	61	0
3	280006	62	0
3	284465	63	0
3	288879	64	0
3	293476	65	0
3	297935	66	2304
3	302283	67	0
3	306745	68	0
3	311405	69	0
3	316050	70	0
3	320410	71	0
3	325115	72	0
3	329697	73	0
3	334315	74	0
3	338825	75	0
3	343524	76	0
3	348034	77	0
3	352511	78	0
3	356988	79	0
3	361558	80	0
3	366110	81	0
3	370740	82	0
3	375271	83	0
3	379817	84	2278
3	384255	85	0
3	388609	86	0
3	393173	87	0
3	397689	88	0
3	402271	89	0
3	406748	90	0
3	411387	91	0
3	415993	92	0
3	420494	93	0
3	425058	94	0
3	429634	95	0
3	434498	96	2300
3	439002	97	0
3	443497	98	0
3	448148	99	0
3	452676	100	0
4	4540	1	0
4	9269	2	0
4	13911	3	2295
4	18382	4	0
4	23183	5	0
4	27741	6	0
4	32287	7	0
4	36566	8	0
4	40908	9	0
4	45433	10	0
4	49976	11	0
4	54393	12	0
4	59014	13	0
4	63893	14	0
4	68202	15	0
4	72811	16	0
4	77390	17	0
4	81723	18	0
4	86173	19	0
4	90647	20	2273
4	95361	21	0
4	99814	22	0
4	104147	23	0
4	108483	24	0
4	112777	25	0
4	117230	26	0
4	121734	27	0
4	126310	28	0
4	130682	29	0
4	135192	30	0
4	139963	31	0
4	144371	32	2291
4	148941	33	0
4	153445	34	0
4	157859	35	0
4	162273	36	0
4	166495	37	0
4	170972	38	0
4	175683	39	0
4	180379	40	0
4	184820	41	0
4	189525	42	0
4	194095	43	0
4	198638	44	0
4	203172	45	0
4	207754	46	0
4	212297	47	2278
4	216801	48	0
4	221473	49	0
4	225974	50	0
4	230538	51	0
4	235177	52	0
4	239588	53	0
4	244074	54	0
4	248605	55	0
4	253175	56	0
4	257535	57	0
4	261997	58	0
4	266414	59	0
4	270780	60	0
4	275404	61	2321
4	280007	62	0
4	284466	63	0
4	288880	64	0
4	293477	65	0
4	297936	66	0
4	302284	67	0
4	306746	68	0
4	311406	69	0
4	316051	70	0
4	320411	71	0
4	325116	72	0
4	329698	73	0
4	334316	74	0
4	338826	75	0
4	343525	76	0
4	348035	77	0
4	352512	78	2316
4	356989	79	0
4	361559	80	0
4	366111	81	0
4	370741	82	0
4	375272	83	0
4	379818	84	0
4	384256	85	0
4	388610	86	0
4	393174	87	0
4	397690	88	0
4	402272	89	0
4	406749	90	0
4	411388	91	0
4	415994	92	0
4	420495	93	0
4	425059	94	2276
4	429635	95	0
4	434499	96	0
4	439003	97	0
4	443498	98	0
4	448149	99	0
4	452677	100	0
5	4541	1	0
5	9270	2	0
5	13912	3	0
5	18383	4	2315
5	23184	5	0
5	27742	6	0
5	32288	7	0
5	36567	8	0
5	40909	9	0
5	45434	10	0
5	49977	11	0
5	54394	12	0
5	59015	13	0
5	63894	14	0
5	68203	15	0
5	72812	16	0
5	77391	17	0
5	81724	18	0
5	86174	19	0
5	90648	20	0
5	95362	21	0
5	99815	22	0
5	104148	23	0
5	108484	24	0
5	112778	25	0
5	117231	26	2292
5	121735	27	0
5	126311	28	0
5	130683	29	0
5	135193	30	0
5	139964	31	0
5	144372	32	0
5	148942	33	0
5	153446	34	0
5	157860	35	0
5	162274	36	0
5	166496	37	0
5	170973	38	0
5	175684	39	0
5	180380	40	2297
5	184821	41	0
5	189526	42	0
5	194096	43	0
5	198639	44	0
5	203173	45	0
5	207755	46	0
5	212298	47	0
5	216802	48	0
5	221474	49	0
5	225975	50	0
5	230539	51	0
5	235178	52	0
5	239589	53	0
5	244075	54	2301
5	248606	55	0
5	253176	56	0
5	257536	57	0
5	261998	58	0
5	266415	59	0
5	270781	60	0
5	275405	61	0
5	280008	62	0
5	284467	63	0
5	288881	64	0
5	293478	65	0
5	297937	66	0
5	302285	67	2300
5	306747	68	0
5	311407	69	0
5	316052	70	0
5	320412	71	0
5	325117	72	0
5	329699	73	0
5	334317	74	0
5	338827	75	0
5	343526	76	0
5	348036	77	0
5	352513	78	0
5	356990	79	0
5	361560	80	0
5	366112	81	0
5	370742	82	2270
5	375273	83	0
5	379819	84	0
5	384257	85	0
5	388611	86	0
5	393175	87	0
5	397691	88	0
5	402273	89	0
5	406750	90	0
5	411389	91	0
5	415995	92	0
5	420496	93	0
5	425060	94	0
5	429636	95	2324
5	434500	96	0
5	439004	97	0
5	443499	98	0
5	448150	99	0
5	452678	100	0
6	4542	1	0
6	9271	2	0
6	13913	3	0
6	18384	4	0
6	23185	5	2303
6	27743	6	0
6	32289	7	0
6	36568	8	0
6	40910	9	0
6	45435	10	0
6	49978	11	0
6	54395	12	0
6	59016	13	0
6	63895	14	0
6	68204	15	0
6	72813	16	0
6	77392	17	0
6	81725	18	0
6	86175	19	0
6	90649	20	0
6	95363	21	0
6	99816	22	0
6	104149	23	2274
6	108485	24	0
6	112779	25	0
6	117232	26	0
6	121736	27	0
6	126312	28	0
6	130684	29	0
6	135194	30	0
6	139965	31	0
6	144373	32	0
6	148943	33	0
6	153447	34	2276
6	157861	35	0
6	162275	36	0
6	166497	37	0
6	170974	38	0
6	175685	39	0
6	180381	40	0
6	184822	41	0
6	189527	42	0
6	194097	43	0
6	198640	44	0
6	203174	45	0
6	207756	46	2313
6	212299	47	0
6	216803	48	0
6	221475	49	0
6	225976	50	0
6	230540	51	0
6	235179	52	0
6	239590	53	0
6	244076	54	0
6	248607	55	0
6	253177	56	0
6	257537	57	0
6	261999	58	0
6	266416	59	0
6	270782	60	0
6	275406	61	0
6	280009	62	0
6	284468	63	2291
6	288882	64	0
6	293479	65	0
6	297938	66	0
6	302286	67	0
6	306748	68	0
6	311408	69	0
6	316053	70	0
6	320413	71	0
6	325118	72	0
6	329700	73	0
6	334318	74	0
6	338828	75	0
6	343527	76	0
6	348037	77	2268
6	352514	78	0
6	356991	79	0
6	361561	80	0
6	366113	81	0
6	370743	82	0
6	375274	83	0
6	379820	84	0
6	384258	85	0
6	388612	86	0
6	393176	87	0
6	397692	88	0
6	402274	89	0
6	406751	90	0
6	411390	91	0
6	415996	92	2305
6	420497	93	0
6	425061	94	0
6	429637	95	0
6	434501	96	0
6	439005	97	0
6	443500	98	0
6	448151	99	0
6	452679	100	0
7	4543	1	0
7	9272	2	0
7	13914	3	0
7	18385	4	0
7	23186	5	0
7	27744	6	2315
7	32290	7	0
7	36569	8	0
7	40911	9	0
7	45436	10	0
7	49979	11	0
7	54396	12	0
7	59017	13	0
7	63896	14	0
7	68205	15	0
7	72814	16	0
7	77393	17	0
7	81726	18	0
7	86176	19	0
7	90650	20	0
7	95364	21	0
7	99817	22	0
7	104150	23	0
7	108486	24	0
7	112780	25	0
7	117233	26	0
7	121737	27	2308
7	126313	28	0
7	130685	29	0
7	135195	30	0
7	139966	31	0
7	144374	32	0
7	148944	33	0
7	153448	34	0
7	157862	35	0
7	162276	36	0
7	166498	37	0
7	170975	38	0
7	175686	39	0
7	180382	40	0
7	184823	41	0
7	189528	42	0
7	194098	43	0
7	198641	44	2305
7	203175	45	0
7	207757	46	0
7	212300	47	0
7	216804	48	0
7	221476	49	0
7	225977	50	0
7	230541	51	0
7	235180	52	0
7	239591	53	0
7	244077	54	0
7	248608	55	0
7	253178	56	0
7	257538	57	0
7	262000	58	2298
7	266417	59	0
7	270783	60	0
7	275407	61	0
7	280010	62	0
7	284469	63	0
7	288883	64	0
7	293480	65	0
7	297939	66	0
7	302287	67	0
7	306749	68	0
7	311409	69	0
7	316054	70	0
7	320414	71	0
7	325119	72	2305
7	329701	73	0
7	334319	74	0
7	338829	75	0
7	343528	76	0
7	348038	77	0
7	352515	78	0
7	356992	79	0
7	361562	80	0
7	366114	81	0
7	370744	82	0
7	375275	83	0
7	379821	84	0
7	384259	85	0
7	388613	86	0
7	393177	87	2275
7	397693	88	0
7	402275	89	0
7	406752	90	0
7	411391	91	0
7	415997	92	0
7	420498	93	0
7	425062	94	0
7	429638	95	0
7	434502	96	0
7	439006	97	0
7	443501	98	0
7	448152	99	2305
7	452680	100	0
8	4544	1	0
8	9273	2	0
8	13915	3	0
8	18386	4	0
8	23187	5	0
8	27745	6	0
8	32291	7	2317
8	36570	8	0
8	40912	9	0
8	45437	10	0
8	49980	11	0
8	54397	12	0
8	59018	13	0